/*--------------------------------*- C++ -*----------------------------------*\
  =========                 |
  \\      /  F ield         | OpenFOAM: The Open Source CFD Toolbox
   \\    /   O peration     | Website:  https://openfoam.org
    \\  /    A nd           | Version:  7
     \\/     M anipulation  |
\*---------------------------------------------------------------------------*/
FoamFile
{
    version     2.0;
    format      ascii;
    class       volScalarField;
    location    "0.5";
    object      CH4;
}
// * * * * * * * * * * * * * * * * * * * * * * * * * * * * * * * * * * * * * //

dimensions      [0 0 0 0 0 0 0];

internalField   nonuniform List<scalar> 
8000
(
0.999983
0.999764
0.99816
0.987655
0.936785
0.791478
0.582309
0.388571
0.238826
0.134383
0.0714783
0.0253043
0.00488617
0.000705392
6.40624e-05
1.32669e-05
1.57462e-06
1.35458e-07
1.02792e-08
4.63471e-10
0.999983
0.999766
0.998185
0.987928
0.938573
0.796453
0.587352
0.391597
0.239738
0.13415
0.0707313
0.0246036
0.00470525
0.000668114
6.08837e-05
1.29271e-05
1.56975e-06
1.38158e-07
1.05761e-08
4.76887e-10
0.999983
0.999768
0.998206
0.988151
0.940175
0.800847
0.592116
0.394264
0.240215
0.133407
0.0694756
0.0235352
0.00443912
0.000616696
5.90911e-05
1.28397e-05
1.58896e-06
1.40935e-07
1.07963e-08
4.86027e-10
0.999983
0.999771
0.998232
0.988346
0.941206
0.803542
0.594749
0.3955
0.239854
0.132198
0.0679679
0.0223776
0.00416221
0.000566994
6.13681e-05
1.32458e-05
1.61512e-06
1.42143e-07
1.0851e-08
4.87011e-10
0.999984
0.999774
0.998252
0.988479
0.941823
0.80493
0.595831
0.395614
0.23879
0.130737
0.0664791
0.0212998
0.00391225
0.00052529
6.82107e-05
1.39567e-05
1.63786e-06
1.41922e-07
1.07652e-08
4.81876e-10
0.999984
0.999776
0.998267
0.988587
0.942163
0.805496
0.596014
0.39494
0.237373
0.129249
0.0651274
0.0203739
0.00370324
0.000491709
7.34506e-05
1.44095e-05
1.6399e-06
1.40172e-07
1.05608e-08
4.71893e-10
0.999984
0.999777
0.998274
0.988623
0.942234
0.80558
0.595624
0.393922
0.23592
0.127889
0.0639303
0.0196173
0.00353729
0.000466227
7.87548e-05
1.47046e-05
1.6319e-06
1.37741e-07
1.0329e-08
4.60983e-10
0.999984
0.999777
0.998276
0.988629
0.94221
0.805396
0.59502
0.3929
0.234666
0.126796
0.0630174
0.0190521
0.00341524
0.000447839
8.22351e-05
1.48517e-05
1.61406e-06
1.34821e-07
1.00627e-08
4.48477e-10
0.999984
0.999777
0.998276
0.988622
0.942139
0.805205
0.594484
0.392108
0.233762
0.12604
0.0624032
0.0186786
0.00333543
0.000435943
8.415e-05
1.489e-05
1.59542e-06
1.32301e-07
9.84159e-09
4.38197e-10
0.999984
0.999777
0.998275
0.988614
0.942107
0.805628
0.594232
0.391694
0.233303
0.125662
0.0620997
0.0184956
0.00329656
0.000430151
8.46967e-05
1.48984e-05
1.58591e-06
1.31024e-07
9.72772e-09
4.32815e-10
0.999984
0.999777
0.998275
0.988614
0.942107
0.805628
0.594232
0.391694
0.233303
0.125662
0.0620997
0.0184956
0.00329656
0.000430157
8.46966e-05
1.48983e-05
1.5859e-06
1.31024e-07
9.72773e-09
4.32818e-10
0.999984
0.999777
0.998276
0.988622
0.942139
0.805205
0.594484
0.392108
0.233762
0.12604
0.0624031
0.0186786
0.00333543
0.00043595
8.41497e-05
1.48898e-05
1.59542e-06
1.32301e-07
9.84162e-09
4.38199e-10
0.999984
0.999777
0.998276
0.988629
0.94221
0.805396
0.59502
0.392901
0.234666
0.126796
0.0630174
0.0190521
0.00341523
0.000447841
8.22352e-05
1.48517e-05
1.61406e-06
1.34821e-07
1.00627e-08
4.48475e-10
0.999984
0.999777
0.998274
0.988623
0.942234
0.80558
0.595624
0.393922
0.23592
0.127889
0.0639303
0.0196173
0.00353728
0.000466225
7.8755e-05
1.47047e-05
1.6319e-06
1.37741e-07
1.03289e-08
4.60981e-10
0.999984
0.999776
0.998267
0.988587
0.942164
0.805497
0.596015
0.39494
0.237373
0.129249
0.0651274
0.0203738
0.00370322
0.000491706
7.34503e-05
1.44095e-05
1.63991e-06
1.40172e-07
1.05608e-08
4.71896e-10
0.999984
0.999774
0.998252
0.98848
0.941824
0.80493
0.595832
0.395614
0.23879
0.130737
0.0664792
0.0212998
0.00391224
0.000525287
6.82102e-05
1.39567e-05
1.63785e-06
1.41921e-07
1.07652e-08
4.81883e-10
0.999983
0.999771
0.998232
0.988346
0.941207
0.803543
0.594749
0.395501
0.239855
0.132198
0.0679677
0.0223775
0.00416219
0.00056699
6.13678e-05
1.32459e-05
1.61513e-06
1.42144e-07
1.08504e-08
4.86999e-10
0.999983
0.999768
0.998206
0.988151
0.940175
0.800848
0.592117
0.394265
0.240215
0.133407
0.0694754
0.0235351
0.0044391
0.000616692
5.90908e-05
1.28397e-05
1.58897e-06
1.40936e-07
1.07963e-08
4.86036e-10
0.999983
0.999766
0.998185
0.987929
0.938574
0.796454
0.587353
0.391598
0.239739
0.13415
0.0707312
0.0246036
0.00470522
0.000668109
6.08833e-05
1.29271e-05
1.56975e-06
1.38159e-07
1.05762e-08
4.76896e-10
0.999983
0.999764
0.99816
0.987655
0.936786
0.79148
0.58231
0.388571
0.238826
0.134383
0.0714783
0.0253042
0.00488614
0.000705386
6.40617e-05
1.32667e-05
1.5746e-06
1.35456e-07
1.02792e-08
4.63473e-10
0.999983
0.999766
0.998185
0.987928
0.938573
0.796453
0.587352
0.391597
0.239738
0.13415
0.0707313
0.0246036
0.00470525
0.000668114
6.08837e-05
1.29271e-05
1.56975e-06
1.38158e-07
1.05761e-08
4.76887e-10
0.999983
0.999768
0.99821
0.988217
0.940508
0.80224
0.593321
0.395191
0.240732
0.133937
0.0699254
0.0238373
0.00450805
0.000628541
5.92291e-05
1.29235e-05
1.62034e-06
1.44444e-07
1.1043e-08
4.94655e-10
0.999983
0.99977
0.998229
0.988423
0.941878
0.807039
0.598759
0.398386
0.241411
0.133204
0.0685918
0.0226927
0.00422534
0.000575939
6.09391e-05
1.33482e-05
1.65609e-06
1.46703e-07
1.12023e-08
5.01256e-10
0.999983
0.999773
0.998258
0.988632
0.942939
0.810002
0.601798
0.399893
0.24115
0.131974
0.0670116
0.0214749
0.00393769
0.000526865
6.76328e-05
1.40309e-05
1.66879e-06
1.46425e-07
1.11298e-08
4.96975e-10
0.999984
0.999776
0.998278
0.98876
0.943566
0.811581
0.603111
0.400186
0.240118
0.130473
0.0654376
0.020352
0.00368168
0.000485375
7.33686e-05
1.43905e-05
1.66116e-06
1.43957e-07
1.09006e-08
4.86615e-10
0.999984
0.999778
0.99829
0.988832
0.944032
0.812311
0.603475
0.399633
0.238707
0.128951
0.0640444
0.0193996
0.0034703
0.000452662
7.92041e-05
1.46193e-05
1.64129e-06
1.40226e-07
1.05586e-08
4.70264e-10
0.999984
0.999779
0.998298
0.98888
0.944225
0.812528
0.603222
0.398688
0.237251
0.12757
0.0628218
0.0186291
0.00330413
0.000427442
8.22472e-05
1.46677e-05
1.60373e-06
1.34935e-07
1.00705e-08
4.48003e-10
0.999984
0.999779
0.998302
0.988894
0.944262
0.812423
0.602699
0.397711
0.235992
0.12646
0.0618874
0.0180546
0.00318227
0.000409116
8.36486e-05
1.45132e-05
1.55304e-06
1.29343e-07
9.61796e-09
4.27795e-10
0.999984
0.999779
0.998302
0.988889
0.944219
0.812068
0.602164
0.396939
0.235083
0.125693
0.0612597
0.0176754
0.00310263
0.000397189
8.44914e-05
1.43278e-05
1.5108e-06
1.24995e-07
9.27662e-09
4.12702e-10
0.999984
0.999779
0.998301
0.988877
0.944108
0.810994
0.60174
0.396516
0.234621
0.125311
0.0609503
0.01749
0.00306382
0.000391355
8.50937e-05
1.42192e-05
1.48786e-06
1.22705e-07
9.0994e-09
4.04904e-10
0.999984
0.999779
0.998301
0.988877
0.944108
0.810994
0.601741
0.396516
0.234621
0.125311
0.0609503
0.01749
0.00306382
0.000391353
8.50938e-05
1.42192e-05
1.48785e-06
1.22704e-07
9.09935e-09
4.04901e-10
0.999984
0.999779
0.998302
0.988889
0.944219
0.812068
0.602165
0.396939
0.235083
0.125693
0.0612596
0.0176754
0.00310264
0.000397185
8.44903e-05
1.43277e-05
1.51077e-06
1.24993e-07
9.27646e-09
4.12695e-10
0.999984
0.999779
0.998302
0.988894
0.944262
0.812424
0.602699
0.397711
0.235992
0.12646
0.0618873
0.0180545
0.00318227
0.000409115
8.36484e-05
1.45131e-05
1.55303e-06
1.29341e-07
9.61779e-09
4.27788e-10
0.999984
0.999779
0.998298
0.98888
0.944225
0.812528
0.603222
0.398689
0.237251
0.12757
0.0628218
0.0186291
0.00330412
0.00042744
8.22472e-05
1.46677e-05
1.60373e-06
1.34934e-07
1.00704e-08
4.47996e-10
0.999984
0.999778
0.99829
0.988832
0.944032
0.812311
0.603475
0.399633
0.238707
0.128951
0.0640444
0.0193995
0.00347028
0.00045266
7.92034e-05
1.46193e-05
1.64131e-06
1.40227e-07
1.05586e-08
4.70266e-10
0.999984
0.999776
0.998278
0.98876
0.943566
0.811581
0.603112
0.400187
0.240118
0.130473
0.0654376
0.020352
0.00368166
0.000485372
7.33679e-05
1.43905e-05
1.66114e-06
1.43954e-07
1.09003e-08
4.86608e-10
0.999983
0.999773
0.998258
0.988632
0.942939
0.810003
0.601798
0.399893
0.24115
0.131973
0.0670115
0.0214749
0.00393767
0.000526861
6.76325e-05
1.4031e-05
1.66876e-06
1.46422e-07
1.11291e-08
4.9692e-10
0.999983
0.99977
0.99823
0.988423
0.941878
0.80704
0.59876
0.398386
0.241411
0.133204
0.0685916
0.0226926
0.00422532
0.000575934
6.09389e-05
1.33483e-05
1.65609e-06
1.46704e-07
1.12025e-08
5.01268e-10
0.999983
0.999768
0.99821
0.988217
0.940508
0.802241
0.593322
0.395192
0.240732
0.133937
0.0699252
0.0238372
0.00450802
0.000628536
5.92288e-05
1.29235e-05
1.62036e-06
1.44446e-07
1.10432e-08
4.94667e-10
0.999983
0.999766
0.998185
0.987929
0.938574
0.796454
0.587353
0.391598
0.239739
0.13415
0.0707312
0.0246035
0.00470521
0.000668107
6.08831e-05
1.2927e-05
1.56974e-06
1.38158e-07
1.05762e-08
4.76897e-10
0.999983
0.999768
0.998206
0.988151
0.940175
0.800847
0.592116
0.394264
0.240215
0.133407
0.0694756
0.0235352
0.00443912
0.000616696
5.90911e-05
1.28397e-05
1.58896e-06
1.40935e-07
1.07963e-08
4.86027e-10
0.999983
0.99977
0.998229
0.988423
0.941878
0.807039
0.598759
0.398386
0.241411
0.133204
0.0685918
0.0226927
0.00422534
0.000575939
6.09391e-05
1.33482e-05
1.65609e-06
1.46703e-07
1.12023e-08
5.01256e-10
0.999983
0.999772
0.998252
0.988683
0.943761
0.812173
0.604604
0.401937
0.242231
0.132441
0.0671553
0.0214657
0.00392812
0.000524092
6.73825e-05
1.40305e-05
1.68057e-06
1.48543e-07
1.13368e-08
5.07312e-10
0.999984
0.999775
0.99828
0.988894
0.944851
0.815168
0.607764
0.403556
0.242011
0.131149
0.0654847
0.0201885
0.00363326
0.000476031
7.34461e-05
1.43509e-05
1.67551e-06
1.46444e-07
1.11229e-08
4.95966e-10
0.999984
0.999778
0.998298
0.989007
0.945378
0.816658
0.609102
0.403885
0.240959
0.129575
0.063826
0.0190267
0.00337527
0.000436127
7.92213e-05
1.44641e-05
1.64178e-06
1.41196e-07
1.06191e-08
4.72932e-10
0.999984
0.999779
0.998306
0.989042
0.945492
0.81725
0.609451
0.40332
0.239511
0.127992
0.0623554
0.0180517
0.00316491
0.000404235
8.18718e-05
1.43349e-05
1.56412e-06
1.32263e-07
9.89889e-09
4.41171e-10
0.999984
0.99978
0.998313
0.989085
0.945596
0.817412
0.609185
0.402355
0.238022
0.126579
0.0611393
0.0172783
0.00300181
0.000379719
8.26961e-05
1.38901e-05
1.47528e-06
1.23383e-07
9.21348e-09
4.1074e-10
0.999984
0.99978
0.998317
0.989096
0.945608
0.817313
0.608668
0.401365
0.23674
0.125446
0.0601802
0.0167016
0.00288257
0.000361785
8.24854e-05
1.33782e-05
1.39346e-06
1.15714e-07
8.63636e-09
3.85284e-10
0.999984
0.99978
0.998317
0.989094
0.94557
0.817127
0.608181
0.400593
0.235818
0.124665
0.0595413
0.0163226
0.0028051
0.000350023
8.13516e-05
1.29693e-05
1.33787e-06
1.10774e-07
8.26138e-09
3.68585e-10
0.999984
0.99978
0.998317
0.989088
0.945529
0.816993
0.607894
0.400187
0.235352
0.124278
0.0592279
0.0161381
0.00276762
0.00034432
8.06094e-05
1.27537e-05
1.31109e-06
1.08421e-07
8.0826e-09
3.6059e-10
0.999984
0.99978
0.998317
0.989088
0.945529
0.816994
0.607894
0.400187
0.235352
0.124278
0.0592279
0.0161381
0.00276762
0.000344318
8.06094e-05
1.27537e-05
1.31109e-06
1.08421e-07
8.08257e-09
3.60589e-10
0.999984
0.99978
0.998317
0.989094
0.94557
0.817127
0.608181
0.400593
0.235818
0.124665
0.0595412
0.0163226
0.00280509
0.00035002
8.13515e-05
1.29693e-05
1.33786e-06
1.10773e-07
8.26129e-09
3.6858e-10
0.999984
0.99978
0.998317
0.989096
0.945608
0.817313
0.608668
0.401365
0.23674
0.125446
0.0601802
0.0167015
0.00288257
0.000361783
8.24852e-05
1.33781e-05
1.39344e-06
1.15712e-07
8.63622e-09
3.85277e-10
0.999984
0.99978
0.998313
0.989085
0.945596
0.817412
0.609185
0.402355
0.238022
0.126579
0.0611392
0.0172782
0.0030018
0.000379718
8.26959e-05
1.389e-05
1.47528e-06
1.23383e-07
9.21331e-09
4.10732e-10
0.999984
0.999779
0.998306
0.989042
0.945492
0.817251
0.609451
0.40332
0.23951
0.127991
0.0623554
0.0180516
0.0031649
0.000404232
8.18712e-05
1.43346e-05
1.56416e-06
1.32266e-07
9.89892e-09
4.41168e-10
0.999984
0.999778
0.998298
0.989008
0.945378
0.816658
0.609103
0.403885
0.240959
0.129575
0.0638258
0.0190267
0.00337525
0.000436123
7.92205e-05
1.44642e-05
1.64174e-06
1.41188e-07
1.06189e-08
4.72924e-10
0.999984
0.999775
0.99828
0.988894
0.944851
0.815169
0.607764
0.403556
0.242011
0.131149
0.0654845
0.0201884
0.00363324
0.000476027
7.34457e-05
1.43509e-05
1.67545e-06
1.46437e-07
1.11236e-08
4.95986e-10
0.999983
0.999772
0.998252
0.988683
0.943762
0.812174
0.604604
0.401937
0.242231
0.132441
0.0671551
0.0214656
0.00392809
0.000524087
6.73822e-05
1.40305e-05
1.68056e-06
1.48544e-07
1.13382e-08
5.07389e-10
0.999983
0.99977
0.99823
0.988423
0.941878
0.80704
0.59876
0.398386
0.241411
0.133204
0.0685916
0.0226926
0.00422531
0.000575933
6.09388e-05
1.33483e-05
1.65609e-06
1.46704e-07
1.12025e-08
5.0127e-10
0.999983
0.999768
0.998206
0.988151
0.940175
0.800848
0.592116
0.394264
0.240215
0.133407
0.0694753
0.0235351
0.00443908
0.000616688
5.90905e-05
1.28396e-05
1.58896e-06
1.40936e-07
1.07963e-08
4.86039e-10
0.999983
0.999771
0.998232
0.988346
0.941206
0.803542
0.594749
0.3955
0.239854
0.132198
0.0679679
0.0223776
0.00416221
0.000566994
6.13681e-05
1.32458e-05
1.61512e-06
1.42143e-07
1.0851e-08
4.87011e-10
0.999983
0.999773
0.998258
0.988632
0.942939
0.810002
0.601798
0.399893
0.24115
0.131974
0.0670116
0.0214749
0.00393769
0.000526865
6.76328e-05
1.40309e-05
1.66879e-06
1.46425e-07
1.11298e-08
4.96975e-10
0.999984
0.999775
0.99828
0.988894
0.944851
0.815168
0.607764
0.403556
0.242011
0.131149
0.0654847
0.0201885
0.00363326
0.000476031
7.34461e-05
1.43509e-05
1.67551e-06
1.46444e-07
1.11229e-08
4.95966e-10
0.999984
0.999779
0.998311
0.989112
0.945932
0.81814
0.610893
0.405171
0.241758
0.129781
0.0637411
0.0188748
0.00333753
0.000429857
7.93655e-05
1.43898e-05
1.62837e-06
1.40116e-07
1.05551e-08
4.70654e-10
0.999984
0.999781
0.99833
0.989239
0.946522
0.819628
0.61219
0.405471
0.240645
0.12814
0.0620249
0.0176953
0.00308237
0.00039105
8.15688e-05
1.40759e-05
1.52707e-06
1.29245e-07
9.70048e-09
4.3304e-10
0.999984
0.999783
0.998341
0.989301
0.946796
0.820242
0.612505
0.404867
0.239139
0.126507
0.0605089
0.0167146
0.00287634
0.000359997
8.15714e-05
1.33366e-05
1.4052e-06
1.17735e-07
8.83271e-09
3.94683e-10
0.999984
0.999783
0.998345
0.989312
0.946895
0.820394
0.612207
0.40387
0.23761
0.125068
0.059273
0.0159463
0.00271855
0.000336007
7.8848e-05
1.25096e-05
1.29719e-06
1.08197e-07
8.11116e-09
3.62556e-10
0.999984
0.999784
0.998345
0.989318
0.946907
0.820288
0.611672
0.402861
0.236305
0.12393
0.0583346
0.0153819
0.00260466
0.000318661
7.58919e-05
1.18386e-05
1.21623e-06
1.01119e-07
7.57429e-09
3.38548e-10
0.999984
0.999784
0.998345
0.989316
0.946875
0.820108
0.611185
0.402081
0.235372
0.123147
0.057692
0.0150109
0.00253091
0.000307471
7.36397e-05
1.13776e-05
1.16265e-06
9.64917e-08
7.2246e-09
3.22932e-10
0.999984
0.999784
0.998345
0.989313
0.946849
0.819993
0.610916
0.401676
0.234903
0.122759
0.0573792
0.0148307
0.00249537
0.000302116
7.25007e-05
1.11569e-05
1.13754e-06
9.43335e-08
7.06105e-09
3.15624e-10
0.999984
0.999784
0.998345
0.989313
0.946849
0.819993
0.610916
0.401676
0.234903
0.122759
0.0573792
0.0148307
0.00249537
0.000302116
7.25006e-05
1.11569e-05
1.13754e-06
9.43332e-08
7.06103e-09
3.15623e-10
0.999984
0.999784
0.998345
0.989316
0.946875
0.820108
0.611185
0.402081
0.235372
0.123147
0.057692
0.0150108
0.0025309
0.00030747
7.36395e-05
1.13775e-05
1.16264e-06
9.64909e-08
7.22453e-09
3.22928e-10
0.999984
0.999784
0.998345
0.989318
0.946907
0.820288
0.611672
0.402861
0.236305
0.12393
0.0583344
0.0153819
0.00260465
0.00031866
7.58916e-05
1.18385e-05
1.21622e-06
1.01118e-07
7.57417e-09
3.38542e-10
0.999984
0.999783
0.998345
0.989312
0.946895
0.820394
0.612207
0.40387
0.23761
0.125068
0.059273
0.0159462
0.00271854
0.000336005
7.88476e-05
1.25094e-05
1.29717e-06
1.08196e-07
8.11106e-09
3.62551e-10
0.999984
0.999783
0.998341
0.989301
0.946796
0.820242
0.612505
0.404867
0.239139
0.126507
0.0605088
0.0167145
0.00287633
0.000359995
8.15707e-05
1.33362e-05
1.40525e-06
1.17745e-07
8.8332e-09
3.94696e-10
0.999984
0.999781
0.99833
0.989239
0.946523
0.819628
0.61219
0.405471
0.240645
0.12814
0.0620247
0.0176953
0.00308235
0.000391046
8.1568e-05
1.40759e-05
1.52701e-06
1.29232e-07
9.69972e-09
4.33013e-10
0.999984
0.999779
0.998311
0.989112
0.945932
0.818141
0.610893
0.405171
0.241758
0.129781
0.063741
0.0188747
0.00333751
0.000429852
7.93648e-05
1.43898e-05
1.62826e-06
1.40101e-07
1.05549e-08
4.70646e-10
0.999984
0.999775
0.99828
0.988894
0.944851
0.815169
0.607764
0.403556
0.242011
0.131149
0.0654845
0.0201884
0.00363323
0.000476026
7.34458e-05
1.43508e-05
1.67544e-06
1.46436e-07
1.11235e-08
4.95985e-10
0.999983
0.999773
0.998258
0.988632
0.942939
0.810003
0.601798
0.399893
0.24115
0.131973
0.0670114
0.0214748
0.00393765
0.000526859
6.76324e-05
1.40308e-05
1.66876e-06
1.46422e-07
1.11291e-08
4.96921e-10
0.999983
0.999771
0.998232
0.988346
0.941207
0.803543
0.594749
0.3955
0.239854
0.132198
0.0679675
0.0223774
0.00416216
0.000566985
6.13674e-05
1.32458e-05
1.61513e-06
1.42144e-07
1.08505e-08
4.87004e-10
0.999984
0.999774
0.998252
0.988479
0.941823
0.80493
0.595831
0.395614
0.23879
0.130737
0.0664791
0.0212998
0.00391225
0.00052529
6.82107e-05
1.39567e-05
1.63786e-06
1.41922e-07
1.07652e-08
4.81876e-10
0.999984
0.999776
0.998278
0.98876
0.943566
0.811581
0.603111
0.400186
0.240118
0.130473
0.0654376
0.020352
0.00368168
0.000485375
7.33686e-05
1.43905e-05
1.66116e-06
1.43957e-07
1.09006e-08
4.86615e-10
0.999984
0.999778
0.998298
0.989007
0.945378
0.816658
0.609102
0.403885
0.240959
0.129575
0.063826
0.0190267
0.00337527
0.000436127
7.92213e-05
1.44641e-05
1.64178e-06
1.41196e-07
1.06191e-08
4.72932e-10
0.999984
0.999781
0.99833
0.989239
0.946522
0.819628
0.61219
0.405471
0.240645
0.12814
0.0620249
0.0176953
0.00308237
0.00039105
8.15688e-05
1.40759e-05
1.52707e-06
1.29245e-07
9.70048e-09
4.3304e-10
0.999984
0.999784
0.998349
0.989363
0.94711
0.821099
0.613452
0.40574
0.239474
0.126455
0.0602831
0.0165156
0.00283268
0.000353165
8.07612e-05
1.31369e-05
1.38394e-06
1.16132e-07
8.72067e-09
3.89781e-10
0.999984
0.999785
0.99836
0.98943
0.947391
0.821703
0.613746
0.405107
0.237926
0.124798
0.0587558
0.0155443
0.00263335
0.000322808
7.65842e-05
1.20703e-05
1.25188e-06
1.04674e-07
7.85986e-09
3.51461e-10
0.999984
0.999786
0.998366
0.989459
0.947495
0.821849
0.613435
0.404095
0.236375
0.123353
0.0575133
0.0147894
0.00248204
0.00029984
7.20441e-05
1.11503e-05
1.14552e-06
9.55405e-08
7.17319e-09
3.20824e-10
0.999984
0.999786
0.998368
0.989468
0.947506
0.821742
0.612898
0.403081
0.235064
0.122222
0.0565886
0.0142409
0.0023739
0.000283554
6.8365e-05
1.04566e-05
1.06752e-06
8.8889e-08
6.6732e-09
2.98575e-10
0.999984
0.999786
0.998368
0.989467
0.947476
0.821566
0.612414
0.402302
0.234132
0.121449
0.0559663
0.0138833
0.00230439
0.000273189
6.58875e-05
1.00062e-05
1.01773e-06
8.4664e-08
6.35559e-09
2.8444e-10
0.999984
0.999786
0.998368
0.989464
0.947451
0.821456
0.612151
0.4019
0.233665
0.121067
0.0556564
0.0137095
0.00227096
0.000268265
6.47002e-05
9.79718e-06
9.94942e-07
8.27344e-08
6.20993e-09
2.77914e-10
0.999984
0.999786
0.998368
0.989464
0.947451
0.821456
0.612151
0.4019
0.233665
0.121067
0.0556564
0.0137095
0.00227096
0.000268265
6.47001e-05
9.79716e-06
9.94939e-07
8.27342e-08
6.20991e-09
2.77913e-10
0.999984
0.999786
0.998368
0.989467
0.947476
0.821566
0.612414
0.402302
0.234132
0.121449
0.0559662
0.0138833
0.00230439
0.000273188
6.58873e-05
1.00061e-05
1.01773e-06
8.46632e-08
6.35552e-09
2.84437e-10
0.999984
0.999786
0.998368
0.989468
0.947506
0.821742
0.612898
0.403081
0.235064
0.122222
0.0565885
0.0142409
0.00237389
0.000283553
6.83647e-05
1.04565e-05
1.06751e-06
8.88877e-08
6.67309e-09
2.98568e-10
0.999984
0.999786
0.998366
0.989459
0.947495
0.821849
0.613436
0.404095
0.236375
0.123353
0.0575132
0.0147893
0.00248203
0.000299838
7.20434e-05
1.11502e-05
1.1455e-06
9.55388e-08
7.17304e-09
3.20817e-10
0.999984
0.999785
0.99836
0.98943
0.947391
0.821703
0.613746
0.405107
0.237926
0.124798
0.0587557
0.0155442
0.00263333
0.000322805
7.65834e-05
1.20701e-05
1.25185e-06
1.04672e-07
7.85968e-09
3.51452e-10
0.999984
0.999784
0.998349
0.989363
0.94711
0.821099
0.613452
0.40574
0.239473
0.126455
0.0602829
0.0165155
0.00283266
0.000353161
8.07604e-05
1.31367e-05
1.3839e-06
1.16127e-07
8.72034e-09
3.89766e-10
0.999984
0.999781
0.99833
0.989239
0.946523
0.819628
0.61219
0.405471
0.240645
0.12814
0.0620247
0.0176952
0.00308235
0.000391045
8.15678e-05
1.40758e-05
1.527e-06
1.29232e-07
9.69967e-09
4.3301e-10
0.999984
0.999778
0.998298
0.989008
0.945378
0.816658
0.609102
0.403884
0.240959
0.129575
0.0638257
0.0190266
0.00337524
0.000436121
7.92203e-05
1.4464e-05
1.64172e-06
1.41187e-07
1.06188e-08
4.7292e-10
0.999984
0.999776
0.998278
0.98876
0.943566
0.811581
0.603111
0.400186
0.240118
0.130473
0.0654374
0.0203518
0.00368164
0.000485368
7.33678e-05
1.43903e-05
1.66114e-06
1.43955e-07
1.09004e-08
4.86609e-10
0.999984
0.999774
0.998252
0.98848
0.941824
0.80493
0.595832
0.395614
0.238789
0.130737
0.0664788
0.0212996
0.0039122
0.000525279
6.82098e-05
1.39567e-05
1.63786e-06
1.41922e-07
1.07652e-08
4.81884e-10
0.999984
0.999776
0.998267
0.988587
0.942163
0.805496
0.596014
0.39494
0.237373
0.129249
0.0651274
0.0203739
0.00370324
0.000491709
7.34506e-05
1.44095e-05
1.6399e-06
1.40172e-07
1.05608e-08
4.71893e-10
0.999984
0.999778
0.99829
0.988832
0.944032
0.812311
0.603475
0.399633
0.238707
0.128951
0.0640444
0.0193996
0.0034703
0.000452662
7.92041e-05
1.46193e-05
1.64129e-06
1.40226e-07
1.05586e-08
4.70264e-10
0.999984
0.999779
0.998306
0.989042
0.945492
0.81725
0.609451
0.40332
0.239511
0.127992
0.0623554
0.0180517
0.00316491
0.000404235
8.18718e-05
1.43349e-05
1.56412e-06
1.32263e-07
9.89889e-09
4.41171e-10
0.999984
0.999783
0.998341
0.989301
0.946796
0.820242
0.612505
0.404867
0.239139
0.126507
0.0605089
0.0167146
0.00287634
0.000359997
8.15714e-05
1.33366e-05
1.4052e-06
1.17735e-07
8.83271e-09
3.94683e-10
0.999984
0.999785
0.99836
0.98943
0.947391
0.821703
0.613746
0.405107
0.237926
0.124798
0.0587558
0.0155443
0.00263335
0.000322808
7.65842e-05
1.20703e-05
1.25188e-06
1.04674e-07
7.85986e-09
3.51461e-10
0.999984
0.999787
0.998371
0.989497
0.947671
0.822303
0.61403
0.404456
0.236359
0.123138
0.0572295
0.0145892
0.00244118
0.000293631
7.07012e-05
1.09131e-05
1.12088e-06
9.35909e-08
7.03404e-09
3.1471e-10
0.999984
0.999787
0.998376
0.989526
0.947774
0.822448
0.613719
0.403442
0.234807
0.121704
0.056001
0.0138527
0.00229644
0.000271948
6.56586e-05
9.99433e-06
1.01974e-06
8.50693e-08
6.3972e-09
2.8641e-10
0.999985
0.999788
0.998378
0.989535
0.947786
0.822348
0.613187
0.402435
0.233503
0.120588
0.0550863
0.0133203
0.00219362
0.000256762
6.19159e-05
9.33502e-06
9.48038e-07
7.90313e-08
5.94492e-09
2.66278e-10
0.999985
0.999788
0.998379
0.989534
0.947758
0.82218
0.61271
0.401664
0.23258
0.119831
0.0544837
0.0129762
0.00212795
0.000247188
5.95057e-05
8.91966e-06
9.03259e-07
7.5266e-08
5.66258e-09
2.53679e-10
0.999985
0.999788
0.998379
0.989531
0.947736
0.822076
0.612452
0.401268
0.232119
0.119456
0.0541825
0.0128091
0.00209644
0.000242664
5.83757e-05
8.73009e-06
8.83035e-07
7.35682e-08
5.53476e-09
2.47935e-10
0.999985
0.999788
0.998379
0.989531
0.947736
0.822076
0.612452
0.401268
0.232119
0.119456
0.0541825
0.0128091
0.00209644
0.000242664
5.83756e-05
8.73007e-06
8.83033e-07
7.3568e-08
5.53474e-09
2.47934e-10
0.999985
0.999788
0.998379
0.989534
0.947758
0.82218
0.61271
0.401664
0.23258
0.119831
0.0544837
0.0129761
0.00212794
0.000247187
5.95054e-05
8.91961e-06
9.03252e-07
7.52653e-08
5.66251e-09
2.53675e-10
0.999985
0.999788
0.998378
0.989535
0.947786
0.822349
0.613187
0.402435
0.233503
0.120588
0.0550862
0.0133203
0.00219362
0.000256761
6.19156e-05
9.33493e-06
9.48027e-07
7.90301e-08
5.94481e-09
2.66272e-10
0.999984
0.999787
0.998376
0.989526
0.947774
0.822448
0.61372
0.403442
0.234807
0.121704
0.0560009
0.0138526
0.00229643
0.000271946
6.5658e-05
9.99421e-06
1.01973e-06
8.50676e-08
6.39705e-09
2.86402e-10
0.999984
0.999787
0.998371
0.989497
0.947671
0.822303
0.61403
0.404456
0.236359
0.123138
0.0572294
0.0145892
0.00244117
0.000293628
7.07004e-05
1.09129e-05
1.12085e-06
9.35887e-08
7.03384e-09
3.147e-10
0.999984
0.999785
0.99836
0.98943
0.947391
0.821703
0.613746
0.405107
0.237926
0.124798
0.0587556
0.0155442
0.00263332
0.000322804
7.65831e-05
1.20701e-05
1.25185e-06
1.04671e-07
7.85963e-09
3.5145e-10
0.999984
0.999783
0.998341
0.989301
0.946796
0.820242
0.612505
0.404867
0.239139
0.126506
0.0605087
0.0167145
0.00287631
0.000359992
8.15703e-05
1.33361e-05
1.40524e-06
1.17744e-07
8.83311e-09
3.94692e-10
0.999984
0.999779
0.998306
0.989042
0.945492
0.81725
0.609451
0.40332
0.23951
0.127991
0.0623551
0.0180515
0.00316487
0.000404228
8.18707e-05
1.43344e-05
1.56413e-06
1.32263e-07
9.89865e-09
4.41156e-10
0.999984
0.999778
0.99829
0.988832
0.944032
0.812311
0.603475
0.399633
0.238707
0.128951
0.0640441
0.0193994
0.00347025
0.000452654
7.9203e-05
1.46192e-05
1.64131e-06
1.40226e-07
1.05586e-08
4.70266e-10
0.999984
0.999776
0.998267
0.988587
0.942164
0.805496
0.596014
0.39494
0.237372
0.129248
0.065127
0.0203736
0.00370317
0.000491697
7.34498e-05
1.44095e-05
1.63993e-06
1.40174e-07
1.05607e-08
4.7189e-10
0.999984
0.999777
0.998274
0.988623
0.942234
0.80558
0.595623
0.393922
0.23592
0.127889
0.0639303
0.0196173
0.00353729
0.000466227
7.87548e-05
1.47046e-05
1.6319e-06
1.37741e-07
1.0329e-08
4.60983e-10
0.999984
0.999779
0.998298
0.98888
0.944225
0.812528
0.603222
0.398688
0.237251
0.12757
0.0628218
0.0186291
0.00330413
0.000427442
8.22472e-05
1.46677e-05
1.60373e-06
1.34935e-07
1.00705e-08
4.48003e-10
0.999984
0.99978
0.998313
0.989085
0.945596
0.817412
0.609185
0.402355
0.238022
0.126579
0.0611393
0.0172783
0.00300181
0.000379719
8.26961e-05
1.38901e-05
1.47528e-06
1.23383e-07
9.21348e-09
4.1074e-10
0.999984
0.999783
0.998345
0.989312
0.946895
0.820394
0.612207
0.40387
0.23761
0.125068
0.059273
0.0159463
0.00271855
0.000336007
7.8848e-05
1.25096e-05
1.29719e-06
1.08197e-07
8.11116e-09
3.62556e-10
0.999984
0.999786
0.998366
0.989459
0.947495
0.821849
0.613435
0.404095
0.236375
0.123353
0.0575133
0.0147894
0.00248204
0.00029984
7.20441e-05
1.11503e-05
1.14552e-06
9.55405e-08
7.17319e-09
3.20824e-10
0.999984
0.999787
0.998376
0.989526
0.947774
0.822448
0.613719
0.403442
0.234807
0.121704
0.056001
0.0138527
0.00229644
0.000271948
6.56586e-05
9.99433e-06
1.01974e-06
8.50693e-08
6.3972e-09
2.8641e-10
0.999985
0.999788
0.998382
0.989555
0.947878
0.822598
0.613419
0.402438
0.233266
0.120289
0.0547893
0.0131341
0.00215742
0.000251462
6.06204e-05
9.12073e-06
9.25956e-07
7.72453e-08
5.8143e-09
2.60478e-10
0.999985
0.999788
0.998384
0.989564
0.947893
0.822507
0.612902
0.401445
0.231976
0.11919
0.0538891
0.0126166
0.00205902
0.00023722
5.70148e-05
8.50823e-06
8.60523e-07
7.17767e-08
5.40685e-09
2.42306e-10
0.999985
0.999788
0.998384
0.989564
0.947868
0.822348
0.612439
0.400688
0.231065
0.118447
0.0532978
0.0122832
0.00199638
0.000228282
5.47331e-05
8.12668e-06
8.19991e-07
6.83941e-08
5.15472e-09
2.31036e-10
0.999985
0.999788
0.998384
0.989562
0.947849
0.822251
0.612189
0.4003
0.230612
0.118081
0.0530053
0.0121221
0.00196644
0.000224076
5.36745e-05
7.95393e-06
8.01804e-07
6.68802e-08
5.0412e-09
2.25922e-10
0.999985
0.999788
0.998384
0.989562
0.947849
0.822251
0.612189
0.4003
0.230612
0.118081
0.0530053
0.0121221
0.00196643
0.000224076
5.36744e-05
7.95391e-06
8.01802e-07
6.688e-08
5.04118e-09
2.25921e-10
0.999985
0.999788
0.998384
0.989564
0.947868
0.822348
0.612439
0.400688
0.231065
0.118447
0.0532978
0.0122832
0.00199637
0.000228281
5.47328e-05
8.12664e-06
8.19984e-07
6.83934e-08
5.15465e-09
2.31032e-10
0.999985
0.999788
0.998384
0.989564
0.947893
0.822507
0.612902
0.401445
0.231976
0.11919
0.053889
0.0126165
0.00205901
0.000237218
5.70144e-05
8.50815e-06
8.60512e-07
7.17756e-08
5.40672e-09
2.42299e-10
0.999985
0.999788
0.998382
0.989555
0.947878
0.822598
0.613419
0.402438
0.233266
0.120289
0.0547892
0.013134
0.0021574
0.00025146
6.06198e-05
9.12061e-06
9.2594e-07
7.72437e-08
5.81414e-09
2.60469e-10
0.999984
0.999787
0.998376
0.989526
0.947774
0.822448
0.613719
0.403442
0.234807
0.121704
0.0560009
0.0138526
0.00229642
0.000271944
6.56578e-05
9.99417e-06
1.01972e-06
8.50671e-08
6.39701e-09
2.86399e-10
0.999984
0.999786
0.998366
0.989459
0.947495
0.821849
0.613435
0.404094
0.236375
0.123352
0.0575131
0.0147892
0.00248201
0.000299835
7.20428e-05
1.11501e-05
1.14549e-06
9.55376e-08
7.17294e-09
3.20812e-10
0.999984
0.999783
0.998345
0.989312
0.946895
0.820394
0.612207
0.40387
0.237609
0.125068
0.0592726
0.0159461
0.00271851
0.000336001
7.88467e-05
1.25092e-05
1.29716e-06
1.08194e-07
8.11091e-09
3.62543e-10
0.999984
0.99978
0.998313
0.989085
0.945596
0.817412
0.609185
0.402354
0.238022
0.126579
0.061139
0.0172781
0.00300176
0.000379712
8.2695e-05
1.38898e-05
1.47524e-06
1.23378e-07
9.21289e-09
4.10713e-10
0.999984
0.999779
0.998298
0.98888
0.944225
0.812528
0.603222
0.398688
0.23725
0.127569
0.0628215
0.0186289
0.00330408
0.000427433
8.22465e-05
1.46675e-05
1.60371e-06
1.34931e-07
1.007e-08
4.4798e-10
0.999984
0.999777
0.998274
0.988623
0.942234
0.80558
0.595623
0.393921
0.235919
0.127888
0.0639298
0.019617
0.00353722
0.000466215
7.87543e-05
1.47047e-05
1.63191e-06
1.37741e-07
1.03287e-08
4.60964e-10
0.999984
0.999777
0.998276
0.988629
0.94221
0.805396
0.59502
0.3929
0.234666
0.126796
0.0630174
0.0190521
0.00341524
0.000447839
8.22351e-05
1.48517e-05
1.61406e-06
1.34821e-07
1.00627e-08
4.48477e-10
0.999984
0.999779
0.998302
0.988894
0.944262
0.812423
0.602699
0.397711
0.235992
0.12646
0.0618874
0.0180546
0.00318227
0.000409116
8.36486e-05
1.45132e-05
1.55304e-06
1.29343e-07
9.61796e-09
4.27795e-10
0.999984
0.99978
0.998317
0.989096
0.945608
0.817313
0.608668
0.401365
0.23674
0.125446
0.0601802
0.0167016
0.00288257
0.000361785
8.24854e-05
1.33782e-05
1.39346e-06
1.15714e-07
8.63636e-09
3.85284e-10
0.999984
0.999784
0.998345
0.989318
0.946907
0.820288
0.611672
0.402861
0.236305
0.12393
0.0583346
0.0153819
0.00260466
0.000318661
7.58919e-05
1.18386e-05
1.21623e-06
1.01119e-07
7.57429e-09
3.38548e-10
0.999984
0.999786
0.998368
0.989468
0.947506
0.821742
0.612898
0.403081