/*--------------------------------*- C++ -*----------------------------------*\
  =========                 |
  \\      /  F ield         | OpenFOAM: The Open Source CFD Toolbox
   \\    /   O peration     | Website:  https://openfoam.org
    \\  /    A nd           | Version:  7
     \\/     M anipulation  |
\*---------------------------------------------------------------------------*/
FoamFile
{
    version     2.0;
    format      ascii;
    class       volScalarField;
    location    "0.5";
    object      CO2;
}
// * * * * * * * * * * * * * * * * * * * * * * * * * * * * * * * * * * * * * //

dimensions      [0 0 0 0 0 0 0];

internalField   nonuniform List<scalar> 
8000
(
2.56327e-06
3.53237e-05
0.000275391
0.00184627
0.00944917
0.031159
0.0624065
0.0913488
0.113604
0.128489
0.13537
0.132971
0.106088
0.0598821
0.0249896
0.00497037
0.000564126
4.69648e-05
3.46694e-06
1.53528e-07
2.54417e-06
3.50044e-05
0.000271578
0.0018053
0.00918169
0.0304148
0.0616508
0.0908931
0.113458
0.128479
0.135309
0.132487
0.104258
0.0581106
0.0237817
0.00466752
0.0005328
4.43911e-05
3.27966e-06
1.4535e-07
2.52393e-06
3.47002e-05
0.000268417
0.00177198
0.00894205
0.0297572
0.0609364
0.0904899
0.113371
0.128516
0.135239
0.131792
0.10164
0.0557268
0.0223823
0.00430559
0.000481289
3.99824e-05
2.95651e-06
1.31151e-07
2.49248e-06
3.42475e-05
0.000264541
0.00174275
0.00878765
0.0293537
0.0605406
0.0903005
0.113407
0.128617
0.135189
0.13109
0.0989837
0.0533549
0.020607
0.00381201
0.000416692
3.45519e-05
2.5594e-06
1.1373e-07
2.46451e-06
3.38608e-05
0.000261526
0.00172279
0.00869534
0.0291457
0.0603768
0.0902794
0.113549
0.128761
0.135166
0.130475
0.0966421
0.0513477
0.0189864
0.00338611
0.000364385
3.00392e-05
2.22321e-06
9.88253e-08
2.44342e-06
3.35686e-05
0.00025922
0.00170664
0.00864435
0.0290605
0.0603478
0.0903766
0.113746
0.12892
0.135162
0.129978
0.0947284
0.049745
0.0176052
0.0030542
0.000324068
2.65699e-05
1.96901e-06
8.74881e-08
2.43195e-06
3.34175e-05
0.000258186
0.00170128
0.00863369
0.0290475
0.0604047
0.0905262
0.113951
0.129071
0.135174
0.129599
0.0932511
0.0485438
0.016446
0.00283195
0.000297337
2.4242e-05
1.78514e-06
7.91875e-08
2.42733e-06
3.33605e-05
0.00025787
0.00170032
0.00863719
0.0290745
0.0604939
0.090677
0.114129
0.129196
0.13519
0.129329
0.0921862
0.0477095
0.015668
0.00265875
0.000276248
2.24314e-05
1.64928e-06
7.31312e-08
2.42667e-06
3.33565e-05
0.000257935
0.00170149
0.00864786
0.0291029
0.0605734
0.0907943
0.114258
0.129284
0.135203
0.129156
0.0914956
0.0471727
0.0151683
0.00254683
0.000262875
2.12945e-05
1.5645e-06
6.93588e-08
2.42736e-06
3.33687e-05
0.000258071
0.00170264
0.00865253
0.0290395
0.0606107
0.0908556
0.114323
0.129328
0.13521
0.129072
0.0911601
0.0469084
0.0149219
0.0024931
0.000256561
2.07678e-05
1.52574e-06
6.76299e-08
2.42735e-06
3.33687e-05
0.000258071
0.00170264
0.00865252
0.0290395
0.0606107
0.0908556
0.114323
0.129328
0.13521
0.129072
0.09116
0.0469082
0.0149217
0.00249305
0.000256554
2.07674e-05
1.52572e-06
6.76299e-08
2.42667e-06
3.33564e-05
0.000257934
0.00170149
0.00864785
0.0291029
0.0605734
0.0907943
0.114258
0.129284
0.135202
0.129155
0.0914953
0.0471723
0.015168
0.00254675
0.000262866
2.1294e-05
1.56447e-06
6.9358e-08
2.42733e-06
3.33604e-05
0.000257869
0.00170031
0.00863717
0.0290745
0.0604939
0.0906769
0.114129
0.129196
0.135189
0.129329
0.092186
0.0477093
0.0156679
0.00265872
0.000276245
2.24312e-05
1.64926e-06
7.31304e-08
2.43195e-06
3.34174e-05
0.000258185
0.00170128
0.00863367
0.0290474
0.0604046
0.0905261
0.113951
0.129071
0.135174
0.129599
0.093251
0.0485438
0.016446
0.00283193
0.000297335
2.42419e-05
1.78512e-06
7.91864e-08
2.44342e-06
3.35685e-05
0.000259219
0.00170663
0.00864433
0.0290604
0.0603477
0.0903766
0.113746
0.12892
0.135162
0.129977
0.0947282
0.0497449
0.0176051
0.00305416
0.000324064
2.65696e-05
1.96899e-06
8.74861e-08
2.46451e-06
3.38607e-05
0.000261525
0.00172278
0.0086953
0.0291456
0.0603767
0.0902793
0.113549
0.128761
0.135166
0.130474
0.0966418
0.0513475
0.0189863
0.0033861
0.000364381
3.00385e-05
2.22311e-06
9.88198e-08
2.49248e-06
3.42475e-05
0.00026454
0.00174274
0.00878761
0.0293536
0.0605405
0.0903004
0.113407
0.128617
0.135189
0.131089
0.0989835
0.0533548
0.0206069
0.00381199
0.000416684
3.45505e-05
2.55917e-06
1.13715e-07
2.52394e-06
3.47001e-05
0.000268416
0.00177197
0.00894201
0.0297571
0.0609363
0.0904898
0.113371
0.128516
0.135239
0.131792
0.10164
0.0557268
0.0223822
0.00430558
0.000481281
3.99814e-05
2.95645e-06
1.31147e-07
2.54418e-06
3.50044e-05
0.000271578
0.00180529
0.00918165
0.0304147
0.0616507
0.0908929
0.113457
0.128479
0.135309
0.132487
0.104258
0.0581105
0.0237816
0.00466749
0.00053279
4.43898e-05
3.27954e-06
1.45344e-07
2.56329e-06
3.53237e-05
0.00027539
0.00184626
0.00944912
0.0311589
0.0624064
0.0913488
0.113604
0.128489
0.13537
0.132971
0.106088
0.059882
0.0249895
0.00497032
0.000564113
4.69634e-05
3.46682e-06
1.53522e-07
2.54417e-06
3.50044e-05
0.000271578
0.0018053
0.00918169
0.0304148
0.0616508
0.0908931
0.113458
0.128479
0.135309
0.132487
0.104258
0.0581106
0.0237817
0.00466752
0.0005328
4.43911e-05
3.27966e-06
1.4535e-07
2.52623e-06
3.47053e-05
0.00026781
0.00176204
0.0088923
0.0295491
0.0607566
0.0903521
0.113299
0.128461
0.135236
0.131939
0.102226
0.0561866
0.0227188
0.00440088
0.000491971
4.10157e-05
3.044e-06
1.35344e-07
2.50749e-06
3.44274e-05
0.000264902
0.00173123
0.0086873
0.028831
0.0599413
0.0898696
0.113181
0.12849
0.135149
0.131167
0.0993766
0.0535673
0.0207445
0.00385805
0.000429628
3.64414e-05
2.72621e-06
1.21511e-07
2.47331e-06
3.39324e-05
0.000260649
0.00169994
0.00852853
0.0283874
0.0594847
0.0896394
0.1132
0.128588
0.135086
0.130405
0.0965692
0.0511448
0.0188748
0.00338512
0.000375841
3.16261e-05
2.37059e-06
1.0578e-07
2.4452e-06
3.35462e-05
0.000257681
0.00168072
0.00843471
0.0281509
0.0592864
0.0895912
0.113336
0.128732
0.135053
0.129748
0.0941362
0.0491254
0.0172211
0.00302163
0.000331918
2.78457e-05
2.07598e-06
9.24624e-08
2.42639e-06
3.32949e-05
0.000255855
0.00167003
0.00836497
0.0280412
0.0592302
0.08967
0.113531
0.128892
0.135042
0.129221
0.0921725
0.0475604
0.0158327
0.00275379
0.000295692
2.45621e-05
1.81817e-06
8.09405e-08
2.41411e-06
3.31285e-05
0.00025462
0.00166276
0.00833597
0.0280082
0.0592664
0.0898083
0.113736
0.129043
0.135047
0.128822
0.0906676
0.046411
0.0149319
0.00249523
0.000260649
2.14835e-05
1.59707e-06
7.14151e-08
2.40814e-06
3.30499e-05
0.000254102
0.00166078
0.00833041
0.0280234
0.0593435
0.0899524
0.113914
0.129168
0.135057
0.128536
0.0895778
0.0455954
0.0143624
0.0023388
0.00024106
1.97626e-05
1.46659e-06
6.55407e-08
2.40669e-06
3.30341e-05
0.000254065
0.0016614
0.00833667
0.0280764
0.0594227
0.0900666
0.114044
0.129256
0.135066
0.128352
0.0888692
0.0450584
0.0139017
0.00223888
0.000229234
1.87496e-05
1.39044e-06
6.21012e-08
2.40711e-06
3.30435e-05
0.00025422
0.00166325
0.00835324
0.0282369
0.0594858
0.0901293
0.11411
0.1293
0.135072
0.128263
0.0885253
0.0447991
0.0136623
0.00218749
0.000223425
1.82702e-05
1.35504e-06
6.05068e-08
2.40711e-06
3.30435e-05
0.00025422
0.00166325
0.00835324
0.0282369
0.0594858
0.0901293
0.11411
0.1293
0.135072
0.128263
0.0885252
0.0447989
0.0136622
0.0021875
0.000223426
1.82702e-05
1.35504e-06
6.05064e-08
2.40669e-06
3.30341e-05
0.000254064
0.0016614
0.00833666
0.0280764
0.0594227
0.0900665
0.114044
0.129256
0.135066
0.128351
0.0888689
0.0450581
0.0139016
0.0022389
0.000229235
1.87496e-05
1.39043e-06
6.21003e-08
2.40813e-06
3.30498e-05
0.000254101
0.00166078
0.0083304
0.0280234
0.0593434
0.0899525
0.113914
0.129168
0.135057
0.128535
0.0895776
0.0455952
0.0143623
0.0023388
0.000241061
1.97626e-05
1.46658e-06
6.554e-08
2.41411e-06
3.31284e-05
0.000254619
0.00166275
0.00833595
0.0280081
0.0592664
0.0898082
0.113736
0.129043
0.135047
0.128822
0.0906675
0.046411
0.0149319
0.00249521
0.000260648
2.14834e-05
1.59706e-06
7.14147e-08
2.42638e-06
3.32948e-05
0.000255855
0.00167002
0.00836495
0.0280411
0.0592301
0.0896699
0.113531
0.128892
0.135042
0.129221
0.0921723
0.0475602
0.0158326
0.00275373
0.000295686
2.45618e-05
1.81815e-06
8.09392e-08
2.44519e-06
3.35461e-05
0.00025768
0.00168071
0.00843468
0.0281508
0.0592863
0.089591
0.113336
0.128732
0.135053
0.129747
0.0941359
0.0491251
0.0172209
0.00302159
0.000331914
2.78451e-05
2.07589e-06
9.24549e-08
2.47331e-06
3.39323e-05
0.000260648
0.00169993
0.0085285
0.0283873
0.0594846
0.0896393
0.1132
0.128588
0.135086
0.130405
0.096569
0.0511446
0.0188748
0.00338511
0.00037584
3.16256e-05
2.37043e-06
1.05758e-07
2.50749e-06
3.44273e-05
0.000264901
0.00173122
0.00868726
0.0288309
0.0599412
0.0898695
0.113181
0.12849
0.135149
0.131167
0.0993765
0.0535673
0.0207445
0.00385805
0.000429627
3.64408e-05
2.72611e-06
1.21504e-07
2.52623e-06
3.47053e-05
0.000267809
0.00176203
0.00889226
0.029549
0.0607565
0.090352
0.113299
0.128461
0.135236
0.131939
0.102225
0.0561865
0.0227188
0.00440085
0.000491956
4.10143e-05
3.04388e-06
1.35338e-07
2.54418e-06
3.50044e-05
0.000271578
0.00180529
0.00918165
0.0304147
0.0616507
0.0908929
0.113457
0.128479
0.135309
0.132487
0.104258
0.0581105
0.0237816
0.00466748
0.000532788
4.43897e-05
3.27953e-06
1.45343e-07
2.52393e-06
3.47002e-05
0.000268417
0.00177198
0.00894205
0.0297572
0.0609364
0.0904899
0.113371
0.128516
0.135239
0.131792
0.10164
0.0557268
0.0223823
0.00430559
0.000481289
3.99824e-05
2.95651e-06
1.31151e-07
2.50749e-06
3.44274e-05
0.000264902
0.00173123
0.0086873
0.028831
0.0599413
0.0898696
0.113181
0.12849
0.135149
0.131167
0.0993766
0.0535673
0.0207445
0.00385805
0.000429628
3.64414e-05
2.72621e-06
1.21511e-07
2.4889e-06
3.41389e-05
0.00026156
0.00169222
0.00840547
0.0280628
0.059065
0.0893334
0.11304
0.128514
0.135044
0.130315
0.0963349
0.050914
0.0187835
0.00340013
0.000387065
3.30751e-05
2.47738e-06
1.10295e-07
2.45481e-06
3.36435e-05
0.000257276
0.00166065
0.00824244
0.0276144
0.0585901
0.0890859
0.113052
0.128612
0.134966
0.129495
0.0934192
0.0485212
0.0169061
0.00298186
0.000330982
2.80764e-05
2.09851e-06
9.37838e-08
2.42918e-06
3.32957e-05
0.00025464
0.00164371
0.00816355
0.0273912
0.058388
0.0890321
0.113189
0.128759
0.134923
0.1288
0.0909392
0.0465899
0.0153293
0.00267554
0.00028564
2.38657e-05
1.78431e-06
8.00617e-08
2.41414e-06
3.31041e-05
0.000253421
0.00163851
0.00814645
0.0273021
0.0583339
0.0891124
0.113388
0.128922
0.134904
0.128249
0.0889572
0.0451094
0.0142657
0.00235756
0.000248359
2.07017e-05
1.54932e-06
6.9577e-08
2.40406e-06
3.29695e-05
0.000252434
0.00163215
0.00813079
0.0272774
0.058372
0.0892536
0.113597
0.129074
0.134899
0.127829
0.0874289
0.0439516
0.013341
0.00215738
0.000224851
1.86844e-05
1.39627e-06
6.2538e-08
2.39855e-06
3.28938e-05
0.000251817
0.00163046
0.00812888
0.0272918
0.0584482
0.0893994
0.113778
0.129199
0.134903
0.127526
0.0863087
0.0430548
0.0124337
0.0019923
0.000206882
1.72161e-05
1.28954e-06
5.77434e-08
2.39715e-06
3.28782e-05
0.000251753
0.00163081
0.00813462
0.0273193
0.0585203
0.0895134
0.113909
0.129286
0.134908
0.127333
0.0855887
0.0424942
0.0120056
0.00190765
0.000197391
1.64288e-05
1.23037e-06
5.50396e-08
2.39729e-06
3.28823e-05
0.000251818
0.00163163
0.00814067
0.0273391
0.0585629
0.0895734
0.113975
0.12933
0.134912
0.127241
0.0852436
0.0422297
0.0118228
0.00187197
0.000193493
1.60984e-05
1.20498e-06
5.38641e-08
2.39729e-06
3.28823e-05
0.000251818
0.00163163
0.00814067
0.0273391
0.0585629
0.0895734
0.113975
0.12933
0.134912
0.127241
0.0852436
0.0422297
0.0118228
0.00187197
0.000193493
1.60984e-05
1.20499e-06
5.38642e-08
2.39715e-06
3.28781e-05
0.000251753
0.00163081
0.00813461
0.0273192
0.0585203
0.0895134
0.113909
0.129286
0.134908
0.127333
0.0855886
0.0424942
0.0120056
0.00190765
0.000197391
1.64288e-05
1.23037e-06
5.50397e-08
2.39854e-06
3.28937e-05
0.000251816
0.00163045
0.00812886
0.0272917
0.0584482
0.0893994
0.113778
0.129199
0.134903
0.127526
0.0863086
0.0430548
0.0124337
0.00199229
0.000206881
1.72161e-05
1.28954e-06
5.77436e-08
2.40405e-06
3.29694e-05
0.000252433
0.00163215
0.00813077
0.0272774
0.058372
0.0892536
0.113597
0.129074
0.134899
0.127829
0.0874289
0.0439516
0.013341
0.00215735
0.000224848
1.86844e-05
1.39627e-06
6.25384e-08
2.41413e-06
3.3104e-05
0.00025342
0.0016385
0.00814643
0.027302
0.0583339
0.0891123
0.113388
0.128922
0.134904
0.128248
0.088957
0.0451092
0.0142656
0.00235747
0.000248349
2.07017e-05
1.54934e-06
6.95786e-08
2.42918e-06
3.32956e-05
0.00025464
0.00164371
0.00816353
0.0273912
0.0583879
0.089032
0.113189
0.128759
0.134923
0.1288
0.0909389
0.0465896
0.0153291
0.00267554
0.00028564
2.38654e-05
1.78433e-06
8.0062e-08
2.45481e-06
3.36434e-05
0.000257275
0.00166065
0.00824241
0.0276144
0.0585901
0.089086
0.113052
0.128612
0.134966
0.129495
0.093419
0.0485211
0.016906
0.00298186
0.00033098
2.80755e-05
2.09862e-06
9.37858e-08
2.4889e-06
3.41388e-05
0.000261559
0.00169222
0.00840543
0.0280628
0.0590649
0.0893333
0.11304
0.128514
0.135044
0.130315
0.0963348
0.050914
0.0187835
0.00340015
0.00038706
3.30742e-05
2.47756e-06
1.1031e-07
2.50749e-06
3.44273e-05
0.000264901
0.00173122
0.00868726
0.0288309
0.0599412
0.0898695
0.113181
0.12849
0.135149
0.131167
0.0993765
0.0535673
0.0207445
0.00385806
0.000429628
3.64408e-05
2.72611e-06
1.21504e-07
2.52394e-06
3.47002e-05
0.000268416
0.00177197
0.00894201
0.0297571
0.0609363
0.0904899
0.113371
0.128516
0.135239
0.131792
0.10164
0.0557267
0.0223822
0.00430557
0.000481278
3.99811e-05
2.95642e-06
1.31146e-07
2.49248e-06
3.42475e-05
0.000264541
0.00174275
0.00878765
0.0293537
0.0605406
0.0903005
0.113407
0.128617
0.135189
0.13109
0.0989837
0.0533549
0.020607
0.00381201
0.000416692
3.45519e-05
2.5594e-06
1.1373e-07
2.47331e-06
3.39324e-05
0.000260649
0.00169994
0.00852853
0.0283874
0.0594847
0.0896394
0.1132
0.128588
0.135086
0.130405
0.0965692
0.0511448
0.0188748
0.00338512
0.000375841
3.16261e-05
2.37059e-06
1.0578e-07
2.45481e-06
3.36435e-05
0.000257276
0.00166065
0.00824244
0.0276144
0.0585901
0.0890859
0.113052
0.128612
0.134966
0.129495
0.0934192
0.0485212
0.0169061
0.00298186
0.000330982
2.80764e-05
2.09851e-06
9.37838e-08
2.41842e-06
3.31108e-05
0.000252693
0.00162809
0.00808067
0.0271694
0.0581199
0.0888388
0.113066
0.128713
0.134877
0.128636
0.0904641
0.0462283
0.0151089
0.00263406
0.000281689
2.36135e-05
1.77057e-06
7.95852e-08
2.39134e-06
3.27367e-05
0.000249774
0.00160901
0.00799229
0.0269465
0.0579238
0.0887888
0.113211
0.128864
0.134824
0.127916
0.0879731
0.0443673
0.0137674
0.00226718
0.000239769
2.01102e-05
1.51229e-06
6.80622e-08
2.37485e-06
3.25167e-05
0.000248176
0.00159971
0.00795126
0.0268541
0.0578747
0.0888748
0.113417
0.129029
0.134797
0.127348
0.0859795
0.0428603
0.012518
0.00201753
0.000211338
1.77112e-05
1.33323e-06
5.98997e-08
2.36716e-06
3.24215e-05
0.000247631
0.00159818
0.00793637
0.0268309
0.0579175
0.0890206
0.113631
0.129181
0.134786
0.12692
0.0844569
0.0416906
0.011649
0.00185169
0.000192753
1.61547e-05
1.21625e-06
5.4548e-08
2.36456e-06
3.23961e-05
0.000247634
0.00159716
0.00793444
0.0268462
0.0579962
0.0891692
0.113815
0.129305
0.134785
0.126615
0.0833631
0.0408495
0.0111152
0.00175191
0.000181577
1.51941e-05
1.14223e-06
5.11263e-08
2.36354e-06
3.23848e-05
0.000247603
0.00159744
0.00793916
0.0268728
0.0580684
0.0892844
0.113947
0.129391
0.134787
0.126422
0.0826619
0.0403127
0.0108078
0.00169295
0.000174878
1.46159e-05
1.09782e-06
4.90941e-08
2.36343e-06
3.23848e-05
0.000247637
0.00159796
0.00794314
0.0268898
0.0581083
0.0893442
0.114013
0.129434
0.134789
0.12633
0.0823269
0.0400588
0.0106705
0.00166648
0.000171855
1.43545e-05
1.07777e-06
4.81817e-08
2.36343e-06
3.23848e-05
0.000247637
0.00159795
0.00794313
0.0268898
0.0581082
0.0893442
0.114013
0.129434
0.134789
0.12633
0.0823269
0.0400588
0.0106705
0.00166648
0.000171855
1.43546e-05
1.07777e-06
4.81817e-08
2.36354e-06
3.23848e-05
0.000247603
0.00159744
0.00793915
0.0268728
0.0580684
0.0892843
0.113947
0.129391
0.134787
0.126422
0.0826619
0.0403127
0.0108078
0.00169295
0.000174878
1.46159e-05
1.09783e-06
4.90941e-08
2.36456e-06
3.2396e-05
0.000247633
0.00159715
0.00793443
0.0268461
0.0579962
0.0891692
0.113815
0.129305
0.134785
0.126615
0.0833631
0.0408495
0.0111152
0.00175191
0.000181577
1.51941e-05
1.14224e-06
5.11266e-08
2.36715e-06
3.24214e-05
0.00024763
0.00159817
0.00793635
0.0268309
0.0579174
0.0890206
0.113631
0.129181
0.134786
0.12692
0.0844569
0.0416906
0.011649
0.00185167
0.00019275
1.61545e-05
1.21625e-06
5.45485e-08
2.37485e-06
3.25166e-05
0.000248175
0.0015997
0.00795124
0.0268541
0.0578747
0.0888747
0.113417
0.129028
0.134797
0.127348
0.0859793
0.0428602
0.012518
0.00201747
0.000211328
1.77114e-05
1.33327e-06
5.99026e-08
2.39133e-06
3.27366e-05
0.000249773
0.001609
0.00799227
0.0269464
0.0579238
0.0887888
0.113211
0.128864
0.134823
0.127916
0.0879728
0.0443671
0.0137673
0.00226721
0.000239771
2.01104e-05
1.51227e-06
6.806e-08
2.41841e-06
3.31107e-05
0.000252692
0.00162809
0.00808064
0.0271693
0.0581198
0.0888387
0.113066
0.128713
0.134877
0.128636
0.0904639
0.0462282
0.0151088
0.00263405
0.000281685
2.36127e-05
1.77058e-06
7.95842e-08
2.45481e-06
3.36434e-05
0.000257275
0.00166065
0.00824241
0.0276144
0.0585901
0.0890859
0.113052
0.128612
0.134966
0.129495
0.0934191
0.0485211
0.016906
0.00298183
0.000330976
2.80752e-05
2.0986e-06
9.37852e-08
2.47331e-06
3.39323e-05
0.000260648
0.00169993
0.00852849
0.0283873
0.0594846
0.0896393
0.1132
0.128588
0.135086
0.130405
0.0965691
0.0511446
0.0188747
0.0033851
0.000375838
3.16253e-05
2.37042e-06
1.05757e-07
2.49248e-06
3.42475e-05
0.00026454
0.00174274
0.00878761
0.0293536
0.0605405
0.0903004
0.113407
0.128617
0.135189
0.13109
0.0989835
0.0533547
0.0206069
0.00381198
0.00041668
3.455e-05
2.55913e-06
1.13713e-07
2.46451e-06
3.38608e-05
0.000261526
0.00172279
0.00869534
0.0291457
0.0603768
0.0902794
0.113549
0.128761
0.135166
0.130475
0.0966421
0.0513477
0.0189864
0.00338611
0.000364385
3.00392e-05
2.22321e-06
9.88253e-08
2.4452e-06
3.35462e-05
0.000257681
0.00168072
0.00843471
0.0281509
0.0592864
0.0895912
0.113336
0.128732
0.135053
0.129748
0.0941362
0.0491254
0.0172211
0.00302163
0.000331918
2.78457e-05
2.07598e-06
9.24624e-08
2.42918e-06
3.32957e-05
0.00025464
0.00164371
0.00816355
0.0273912
0.058388
0.0890321
0.113189
0.128759
0.134923
0.1288
0.0909392
0.0465899
0.0153293
0.00267554
0.00028564
2.38657e-05
1.78431e-06
8.00617e-08
2.39134e-06
3.27367e-05
0.000249774
0.00160901
0.00799229
0.0269465
0.0579238
0.0887888
0.113211
0.128864
0.134824
0.127916
0.0879731
0.0443673
0.0137674
0.00226718
0.000239769
2.01102e-05
1.51229e-06
6.80622e-08
2.3649e-06
3.23765e-05
0.000246978
0.0015905
0.00790427
0.0267259
0.0577329
0.0887434
0.113363
0.129016
0.134762
0.127181
0.0854759
0.0424785
0.0122406
0.00197538
0.000207571
1.74525e-05
1.31651e-06
5.91837e-08
2.34824e-06
3.21515e-05
0.000245301
0.0015804
0.00786213
0.026635
0.057687
0.0888334
0.113575
0.129181
0.134729
0.126607
0.0835044
0.0409934
0.0112697
0.0017891
0.000186711
1.56935e-05
1.18308e-06
5.30539e-08
2.33955e-06
3.20363e-05
0.000244491
0.00157605
0.00784661
0.0266127
0.0577316
0.0889814
0.113791
0.129332
0.134714
0.12618
0.0820167
0.0398668
0.0106274
0.0016656
0.000172692
1.449e-05
1.09121e-06
4.88491e-08
2.33584e-06
3.19882e-05
0.000244188
0.00157472
0.00784473
0.0266282
0.0578107
0.0891307
0.113975
0.129453
0.134708
0.125878
0.080958
0.0390637
0.0102104
0.00158382
0.00016329
1.36775e-05
1.02922e-06
4.60469e-08
2.33476e-06
3.19743e-05
0.000244133
0.00157491
0.00784925
0.0266542
0.0578822
0.0892456
0.114106
0.129538
0.134708
0.125688
0.080283
0.0385513
0.00995905
0.00153404
0.000157547
1.318e-05
9.91293e-07
4.43378e-08
2.33463e-06
3.19736e-05
0.000244156
0.00157533
0.00785288
0.0266705
0.0579212
0.089305
0.114172
0.12958
0.134709
0.125598
0.0799619
0.03831
0.00984499
0.00151158
0.000154963
1.2956e-05
9.74164e-07
4.35635e-08
2.33463e-06
3.19736e-05
0.000244156
0.00157533
0.00785288
0.0266705
0.0579212
0.089305
0.114172
0.12958
0.134709
0.125598
0.0799619
0.03831
0.00984499
0.00151158
0.000154963
1.2956e-05
9.74165e-07
4.35635e-08
2.33475e-06
3.19743e-05
0.000244133
0.00157491
0.00784924
0.0266542
0.0578822
0.0892456
0.114106
0.129538
0.134708
0.125688
0.080283
0.0385513
0.00995904
0.00153404
0.000157547
1.31801e-05
9.91296e-07
4.43379e-08
2.33584e-06
3.19881e-05
0.000244188
0.00157472
0.00784472
0.0266281
0.0578107
0.0891306
0.113975
0.129453
0.134708
0.125878
0.080958
0.0390636
0.0102104
0.00158382
0.000163291
1.36776e-05
1.02923e-06
4.60471e-08
2.33954e-06
3.20362e-05
0.00024449
0.00157605
0.00784659
0.0266127
0.0577315
0.0889814
0.113791
0.129332
0.134714
0.12618
0.0820166
0.0398667
0.0106274
0.0016656
0.000172692
1.44901e-05
1.09122e-06
4.88495e-08
2.34823e-06
3.21514e-05
0.0002453
0.0015804
0.00786211
0.0266349
0.0576869
0.0888334
0.113575
0.129181
0.134729
0.126607
0.0835043
0.0409933
0.0112697
0.00178911
0.000186712
1.56936e-05
1.18309e-06
5.30544e-08
2.36489e-06
3.23763e-05
0.000246977
0.0015905
0.00790425
0.0267259
0.0577329
0.0887433
0.113363
0.129016
0.134762
0.127181
0.0854758
0.0424784
0.0122407
0.00197539
0.000207572
1.74525e-05
1.31651e-06
5.91831e-08
2.39133e-06
3.27366e-05
0.000249773
0.001609
0.00799227
0.0269464
0.0579238
0.0887888
0.113211
0.128864
0.134823
0.127916
0.0879729
0.0443672
0.0137673
0.00226717
0.000239766
2.011e-05
1.51225e-06
6.80594e-08
2.42918e-06
3.32956e-05
0.00025464
0.00164371
0.00816353
0.0273912
0.0583879
0.0890321
0.113189
0.128759
0.134923
0.1288
0.090939
0.0465896
0.0153291
0.00267549
0.000285633
2.38649e-05
1.7843e-06
8.00608e-08
2.4452e-06
3.35462e-05
0.00025768
0.00168071
0.00843468
0.0281508
0.0592863
0.089591
0.113336
0.128732
0.135053
0.129747
0.0941359
0.0491251
0.0172208
0.00302156
0.000331907
2.78444e-05
2.07584e-06
9.24526e-08
2.46452e-06
3.38608e-05
0.000261525
0.00172278
0.0086953
0.0291456
0.0603767
0.0902793
0.113549
0.128761
0.135166
0.130474
0.0966417
0.0513474
0.0189862
0.00338605
0.000364372
3.00376e-05
2.22303e-06
9.88152e-08
2.44342e-06
3.35686e-05
0.00025922
0.00170664
0.00864435
0.0290605
0.0603478
0.0903766
0.113746
0.12892
0.135162
0.129978
0.0947284
0.049745
0.0176052
0.0030542
0.000324068
2.65699e-05
1.96901e-06
8.74881e-08
2.42639e-06
3.32949e-05
0.000255855
0.00167003
0.00836497
0.0280412
0.0592302
0.08967
0.113531
0.128892
0.135042
0.129221
0.0921725
0.0475604
0.0158327
0.00275379
0.000295692
2.45621e-05
1.81817e-06
8.09405e-08
2.41414e-06
3.31041e-05
0.000253421
0.00163851
0.00814645
0.0273021
0.0583339
0.0891124
0.113388
0.128922
0.134904
0.128249
0.0889572
0.0451094
0.0142657
0.00235756
0.000248359
2.07017e-05
1.54932e-06
6.9577e-08
2.37485e-06
3.25167e-05
0.000248176
0.00159971
0.00795126
0.0268541
0.0578747
0.0888748
0.113417
0.129029
0.134797
0.127348
0.0859795
0.0428603
0.012518
0.00201753
0.000211338
1.77112e-05
1.33323e-06
5.98997e-08
2.34824e-06
3.21515e-05
0.000245301
0.0015804
0.00786213
0.026635
0.057687
0.0888334
0.113575
0.129181
0.134729
0.126607
0.0835044
0.0409934
0.0112697
0.0017891
0.000186711
1.56935e-05
1.18308e-06
5.30539e-08
2.33203e-06
3.19334e-05
0.000243665
0.00157041
0.00782026
0.0265447
0.0576424
0.0889261
0.113789
0.129344
0.134691
0.126035
0.0815695
0.0395408
0.0104691
0.00163655
0.000169596
1.42423e-05
1.0734e-06
4.80628e-08
2.32358e-06
3.18219e-05
0.000242873
0.00156602
0.00780476
0.0265224
0.057687
0.0890742
0.114004
0.129492
0.134673
0.125613
0.0801225
0.0384509
0.00992668
0.00153047
0.000157501
1.32046e-05
9.94685e-07
4.4517e-08
2.31994e-06
3.1775e-05
0.000242571
0.00156469
0.00780273
0.0265369
0.0577654
0.0892223
0.114187
0.12961
0.134665
0.125318
0.0790999
0.0376803
0.00956621
0.00145904
0.000149286
1.24952e-05
9.40768e-07
4.20928e-08
2.31891e-06
3.17621e-05
0.000242517
0.00156485
0.00780691
0.0265618
0.0578359
0.089336
0.114317
0.129692
0.134663
0.125132
0.0784507
0.0371926
0.00934695
0.00141544
0.000144261
1.20602e-05
9.0775e-07
4.06075e-08
2.31881e-06
3.17617e-05
0.000242539
0.00156523
0.00781024
0.0265772
0.0578742
0.0893945
0.114382
0.129733
0.134663
0.125045
0.0781432
0.0369644
0.00924715
0.00139577
0.000142002
1.18647e-05
8.92873e-07
3.99356e-08
2.31881e-06
3.17617e-05
0.000242539
0.00156523
0.00781024
0.0265772
0.0578742
0.0893945
0.114382
0.129733
0.134663
0.125045
0.0781432
0.0369644
0.00924715
0.00139577
0.000142002
1.18647e-05
8.92873e-07
3.99356e-08
2.31891e-06
3.17621e-05
0.000242517
0.00156484
0.0078069
0.0265618
0.0578359
0.089336
0.114317
0.129692
0.134663
0.125132
0.0784507
0.0371926
0.00934695
0.00141544
0.000144261
1.20602e-05
9.07752e-07
4.06075e-08
2.31993e-06
3.17749e-05
0.00024257
0.00156469
0.00780272
0.0265369
0.0577654
0.0892222
0.114187
0.12961
0.134665
0.125318
0.0790998
0.0376802
0.0095662
0.00145904
0.000149286
1.24952e-05
9.40773e-07
4.20929e-08
2.32357e-06
3.18218e-05
0.000242872
0.00156601
0.00780475
0.0265224
0.057687
0.0890742
0.114004
0.129492
0.134673
0.125613
0.0801224
0.0384509
0.00992667
0.00153047
0.000157501
1.32047e-05
9.94693e-07
4.45172e-08
2.33202e-06
3.19333e-05
0.000243664
0.00157041
0.00782024
0.0265447
0.0576424
0.088926
0.113789
0.129344
0.134691
0.126035
0.0815695
0.0395408
0.0104691
0.00163655
0.000169597
1.42424e-05
1.07341e-06
4.80631e-08
2.34823e-06
3.21514e-05
0.0002453
0.0015804
0.00786211
0.0266349
0.0576869
0.0888334
0.113575
0.129181
0.134729
0.126607
0.0835044
0.0409934
0.0112697
0.00178909
0.000186711
1.56936e-05
1.18309e-06
5.30545e-08
2.37485e-06
3.25165e-05
0.000248175
0.0015997
0.00795124
0.0268541
0.0578747
0.0888747
0.113417
0.129029
0.134797
0.127348
0.0859793
0.0428602
0.012518
0.00201744
0.000211326
1.77112e-05
1.33326e-06
5.99024e-08
2.41413e-06
3.3104e-05
0.00025342
0.0016385
0.00814643
0.027302
0.0583339
0.0891123
0.113388
0.128922
0.134904
0.128248
0.0889569
0.0451091
0.0142656
0.00235747
0.000248348
2.07016e-05
1.54934e-06
6.95783e-08
2.42638e-06
3.32948e-05
0.000255854
0.00167002
0.00836495
0.0280411
0.0592301
0.0896699
0.113531
0.128892
0.135042
0.129221
0.0921721
0.0475601
0.0158325
0.00275372
0.000295682
2.45613e-05
1.81811e-06
8.09363e-08
2.44342e-06
3.35686e-05
0.000259219
0.00170663
0.00864432
0.0290604
0.0603477
0.0903765
0.113746
0.12892
0.135162
0.129977
0.0947279
0.0497446
0.017605
0.00305413
0.000324057
2.65687e-05
1.96888e-06
8.74762e-08
2.43195e-06
3.34175e-05
0.000258186
0.00170128
0.00863369
0.0290475
0.0604047
0.0905262
0.113951
0.129071
0.135174
0.129599
0.0932511
0.0485438
0.016446
0.00283195
0.000297337
2.4242e-05
1.78514e-06
7.91875e-08
2.41411e-06
3.31285e-05
0.00025462
0.00166276
0.00833597
0.0280082
0.0592664
0.0898083
0.113736
0.129043
0.135047
0.128822
0.0906676
0.046411
0.0149319
0.00249523
0.000260649
2.14835e-05
1.59707e-06
7.14151e-08
2.40406e-06
3.29695e-05
0.000252434
0.00163215
0.00813079
0.0272774
0.058372
0.0892536
0.113597
0.129074
0.134899
0.127829
0.0874289
0.0439516
0.013341
0.00215738
0.000224851
1.86844e-05
1.39627e-06
6.2538e-08
2.36716e-06
3.24215e-05
0.000247631
0.00159818
0.00793637
0.0268309
0.0579175
0.0890206
0.113631
0.129181
0.134786
0.12692
0.0844569
0.0416906
0.011649
0.00185169
0.000192753
1.61547e-05
1.21625e-06
5.4548e-08
2.33955e-06
3.20363e-05
0.000244491
0.00157605
0.00784661
0.0266127
0.0577316
0.0889814
0.113791
0.129332
0.134714
0.12618
0.0820167
0.0398668
0.0106274
0.0016656
0.000172692
1.449e-05
1.09121e-06
4.88491e-08
2.32358e-06
3.18219e-05
0.000242873
0.00156602
0.00780476
0.0265224
0.057687
0.0890742
0.114004
0.129492
0.134673
0.125613
0.0801225
0.0384509
0.00992668
0.00153047
0.000157501
1.32046e-05
9.94685e-07
4.4517e-08
2.31546e-06
3.17148e-05
0.000242103
0.00156165
0.00778907
0.0264995
0.05773
0.0892207
0.114218
0.129636
0.134651
0.125197
0.078714
0.0373975
0.00944186
0.00143532
0.000146671
1.22774e-05
9.24685e-07
4.13751e-08
2.31196e-06
3.16697e-05
0.000241807
0.0015603
0.00778666
0.0265126
0.0578061
0.0893668
0.114398
0.129752
0.134642
0.124908
0.0777232
0.0366578
0.00911624
0.00137082
0.000139273
1.16402e-05
8.76613e-07
3.9217e-08
2.3109e-06
3.16565e-05
0.000241747
0.00156037
0.00779027
0.0265361
0.0578745
0.0894784
0.114526
0.129832
0.134639
0.124727
0.0770965
0.0361916
0.00891686
0.00133125
0.000134731
1.12489e-05
8.47073e-07
3.78907e-08
2.31071e-06
3.16547e-05
0.000241756
0.00156067
0.00779317
0.0265505
0.0579115
0.0895357
0.11459
0.129872
0.134638
0.124642
0.0768004
0.0359743
0.0088259
0.00131338
0.000132688
1.10739e-05
8.33782e-07
3.72907e-08
2.31071e-06
3.16547e-05
0.000241756
0.00156066
0.00779317
0.0265505
0.0579115
0.0895357
0.11459
0.129872
0.134638
0.124642
0.0768004
0.0359743
0.0088259
0.00131338
0.000132688
1.10739e-05
8.33782e-07
3.72907e-08
2.3109e-06
3.16565e-05
0.000241746
0.00156037
0.00779026
0.0265361
0.0578745
0.0894784
0.114526
0.129832
0.134639
0.124727
0.0770964
0.0361916
0.00891685
0.00133125
0.000134731
1.12489e-05
8.47073e-07
3.78907e-08
2.31195e-06
3.16696e-05
0.000241806
0.0015603
0.00778665
0.0265126
0.0578061
0.0893668
0.114398
0.129752
0.134642
0.124908
0.0777232
0.0366577
0.00911623
0.00137082
0.000139273
1.16403e-05
8.76614e-07
3.92169e-08
2.31545e-06
3.17147e-05
0.000242102
0.00156165
0.00778906
0.0264994
0.05773
0.0892207
0.114218
0.129636
0.134651
0.125197
0.0787139
0.0373975
0.00944183
0.00143532
0.000146671
1.22774e-05
9.24688e-07
4.13751e-08
2.32357e-06
3.18218e-05
0.000242872
0.00156601
0.00780475
0.0265224
0.057687
0.0890742
0.114004
0.129492
0.134673
0.125613
0.0801223
0.0384509
0.00992665
0.00153047
0.000157501
1.32047e-05
9.94694e-07
4.45172e-08
2.33954e-06
3.20362e-05
0.00024449
0.00157605
0.00784659
0.0266127
0.0577315
0.0889814
0.113791
0.129332
0.134714
0.12618
0.0820165
0.0398667
0.0106274
0.00166559
0.000172692
1.44901e-05
1.09122e-06
4.88496e-08
2.36715e-06
3.24214e-05
0.00024763
0.00159817
0.00793635
0.0268309
0.0579174
0.0890206
0.113631
0.129181
0.134786
0.12692
0.0844567
0.0416905
0.0116489
0.00185167
0.00019275
1.61545e-05
1.21625e-06
5.45487e-08
2.40405e-06
3.29694e-05
0.000252433
0.00163215
0.00813077
0.0272774
0.058372
0.0892537
0.113597
0.129074
0.134899
0.127829
0.0874286
0.0439514
0.013341
0.00215734
0.000224846
1.86843e-05
1.39627e-06
6.25379e-08
2.41411e-06
3.31284e-05
0.000254619
0.00166275
0.00833595
0.0280081
0.0592664
0.0898083
0.113736
0.129043
0.135047
0.128822
0.0906672
0.0464108
0.0149318
0.00249518
0.000260644
2.14828e-05
1.59698e-06