/*--------------------------------*- C++ -*----------------------------------*\
  =========                 |
  \\      /  F ield         | OpenFOAM: The Open Source CFD Toolbox
   \\    /   O peration     | Website:  https://openfoam.org
    \\  /    A nd           | Version:  7
     \\/     M anipulation  |
\*---------------------------------------------------------------------------*/
FoamFile
{
    version     2.0;
    format      ascii;
    class       volScalarField;
    location    "0.5";
    object      O2;
}
// * * * * * * * * * * * * * * * * * * * * * * * * * * * * * * * * * * * * * //

dimensions      [0 0 0 0 0 0 0];

internalField   nonuniform List<scalar> 
8000
(
5.60506e-09
7.66139e-08
5.8835e-07
3.85686e-06
1.90848e-05
5.97775e-05
0.000111512
0.000153166
0.000359262
0.00148258
0.00536411
0.0196701
0.0657101
0.137736
0.191549
0.222351
0.229132
0.229928
0.229995
0.23
5.69786e-09
7.79606e-08
5.9779e-07
3.89729e-06
1.92035e-05
6.04962e-05
0.000114481
0.000158905
0.0003757
0.00155212
0.00562915
0.0205752
0.0685663
0.140469
0.193407
0.222817
0.22918
0.229932
0.229995
0.23
5.81795e-09
7.9652e-08
6.10029e-07
3.95859e-06
1.94413e-05
6.15954e-05
0.000118452
0.000166407
0.000399527
0.00166592
0.00602658
0.0218897
0.072653
0.144147
0.195559
0.223373
0.229259
0.229938
0.229995
0.23
5.89673e-09
8.07275e-08
6.17891e-07
4.00597e-06
1.97048e-05
6.29262e-05
0.000122522
0.000174241
0.000428096
0.00178929
0.00644916
0.0232363
0.0768019
0.147805
0.198288
0.224132
0.229358
0.229947
0.229996
0.23
5.95673e-09
8.15659e-08
6.24619e-07
4.05388e-06
1.99927e-05
6.42183e-05
0.000126076
0.000181254
0.000454933
0.00190396
0.00682826
0.0244302
0.0804607
0.150901
0.200778
0.224787
0.229439
0.229954
0.229997
0.23
6.00936e-09
8.23141e-08
6.30883e-07
4.10209e-06
2.02703e-05
6.53967e-05
0.00012931
0.000187416
0.000478541
0.0020023
0.00714499
0.0254083
0.0834531
0.153375
0.202903
0.225297
0.229501
0.229959
0.229997
0.23
6.06129e-09
8.30534e-08
6.37058e-07
4.14703e-06
2.05313e-05
6.65016e-05
0.000132191
0.000192096
0.000498106
0.00208274
0.00740223
0.0261645
0.0857634
0.155228
0.204684
0.225639
0.229542
0.229963
0.229997
0.23
6.1088e-09
8.37268e-08
6.4265e-07
4.18807e-06
2.0781e-05
6.74618e-05
0.000134237
0.000195454
0.000512913
0.00214241
0.00758883
0.0267105
0.0874297
0.156515
0.205879
0.225905
0.229574
0.229965
0.229997
0.23
6.14698e-09
8.42715e-08
6.47182e-07
4.22036e-06
2.0952e-05
6.80534e-05
0.000135548
0.000197611
0.000522803
0.00218175
0.00771065
0.0270642
0.0885105
0.157341
0.20664
0.226076
0.229595
0.229967
0.229998
0.23
6.1676e-09
8.45588e-08
6.49472e-07
4.23582e-06
2.1032e-05
6.83529e-05
0.000136174
0.000198642
0.000527653
0.00220098
0.00776998
0.0272357
0.0890345
0.157739
0.206993
0.226153
0.229604
0.229968
0.229998
0.23
6.1676e-09
8.45588e-08
6.49472e-07
4.23582e-06
2.1032e-05
6.83529e-05
0.000136174
0.000198642
0.000527653
0.00220098
0.00776998
0.0272357
0.0890343
0.157739
0.206994
0.226153
0.229604
0.229968
0.229998
0.23
6.14699e-09
8.42715e-08
6.47182e-07
4.22036e-06
2.0952e-05
6.80534e-05
0.000135548
0.000197611
0.000522803
0.00218175
0.00771065
0.0270641
0.0885102
0.15734
0.206641
0.226076
0.229595
0.229967
0.229998
0.23
6.1088e-09
8.37268e-08
6.42649e-07
4.18806e-06
2.0781e-05
6.74618e-05
0.000134237
0.000195453
0.000512911
0.00214241
0.00758884
0.0267105
0.0874295
0.156515
0.205879
0.225905
0.229574
0.229965
0.229997
0.23
6.0613e-09
8.30535e-08
6.37058e-07
4.14703e-06
2.05312e-05
6.65016e-05
0.000132191
0.000192096
0.000498104
0.00208273
0.00740222
0.0261645
0.0857634
0.155228
0.204684
0.225639
0.229542
0.229963
0.229997
0.23
6.00938e-09
8.23142e-08
6.30883e-07
4.10209e-06
2.02702e-05
6.53966e-05
0.00012931
0.000187415
0.000478539
0.0020023
0.00714498
0.0254083
0.0834532
0.153375
0.202903
0.225298
0.229501
0.229959
0.229997
0.23
5.95675e-09
8.1566e-08
6.24619e-07
4.05388e-06
1.99927e-05
6.42182e-05
0.000126076
0.000181254
0.000454931
0.00190395
0.00682823
0.0244302
0.0804608
0.150901
0.200778
0.224787
0.229439
0.229954
0.229997
0.23
5.89676e-09
8.07277e-08
6.17891e-07
4.00597e-06
1.97047e-05
6.29261e-05
0.000122522
0.000174241
0.000428095
0.00178929
0.00644916
0.0232363
0.0768019
0.147805
0.198288
0.224132
0.229358
0.229947
0.229996
0.23
5.81798e-09
7.96522e-08
6.1003e-07
3.95859e-06
1.94413e-05
6.15954e-05
0.000118452
0.000166407
0.000399526
0.00166592
0.00602658
0.0218897
0.072653
0.144147
0.19556
0.223373
0.229259
0.229938
0.229995
0.23
5.6979e-09
7.79609e-08
5.97792e-07
3.89729e-06
1.92034e-05
6.04961e-05
0.000114481
0.000158905
0.000375699
0.00155212
0.00562916
0.0205753
0.0685665
0.140469
0.193407
0.222817
0.22918
0.229932
0.229995
0.23
5.60509e-09
7.66142e-08
5.88352e-07
3.85686e-06
1.90848e-05
5.97775e-05
0.000111512
0.000153167
0.000359261
0.00148258
0.00536411
0.0196701
0.0657103
0.137736
0.191549
0.222351
0.229132
0.229928
0.229995
0.23
5.69786e-09
7.79606e-08
5.9779e-07
3.89729e-06
1.92035e-05
6.04962e-05
0.000114481
0.000158905
0.0003757
0.00155212
0.00562915
0.0205752
0.0685663
0.140469
0.193407
0.222817
0.22918
0.229932
0.229995
0.23
5.7984e-09
7.94533e-08
6.08019e-07
3.93248e-06
1.92451e-05
6.10526e-05
0.000117476
0.000164852
0.000391716
0.00162835
0.00592748
0.0215945
0.0717372
0.143437
0.195042
0.223227
0.229243
0.229937
0.229995
0.23
5.91802e-09
8.11488e-08
6.20092e-07
3.98787e-06
1.94198e-05
6.20215e-05
0.000121526
0.00017301
0.000417525
0.0017525
0.00636761
0.0230442
0.0761827
0.147476
0.198077
0.224062
0.229339
0.229944
0.229996
0.23
5.98216e-09
8.20082e-08
6.26085e-07
4.02276e-06
1.9635e-05
6.32336e-05
0.000125689
0.000181306
0.000448062
0.00188558
0.00682744
0.0244962
0.0805655
0.151211
0.200949
0.224789
0.229421
0.229951
0.229996
0.23
6.02964e-09
8.26577e-08
6.31131e-07
4.05828e-06
1.9881e-05
6.44334e-05
0.000129263
0.000188733
0.000476646
0.00200908
0.00724071
0.0257659
0.0843668
0.154326
0.20349
0.225347
0.229489
0.229957
0.229997
0.23
6.07501e-09
8.32957e-08
6.36419e-07
4.09735e-06
2.01443e-05
6.5555e-05
0.000132541
0.000195264
0.000501654
0.00211391
0.0075792
0.0267958
0.0874385
0.156746
0.205631
0.22576
0.229545
0.229962
0.229997
0.23
6.11797e-09
8.39064e-08
6.41573e-07
4.13594e-06
2.03751e-05
6.65831e-05
0.000135478
0.00020019
0.000522288
0.0021992
0.0078533
0.0275877
0.0897912
0.158518
0.207013
0.226157
0.229598
0.229967
0.229998
0.23
6.1581e-09
8.44774e-08
6.46377e-07
4.17131e-06
2.05915e-05
6.74925e-05
0.000137555
0.00020372
0.000537927
0.00226265
0.00805311
0.0281609
0.091496
0.159776
0.207885
0.226398
0.229629
0.22997
0.229998
0.23
6.19166e-09
8.49571e-08
6.5042e-07
4.20163e-06
2.07586e-05
6.80751e-05
0.000138886
0.000205984
0.000548373
0.0023045
0.00818375
0.0285338
0.0926117
0.160621
0.208615
0.226555
0.229647
0.229971
0.229998
0.23
6.21106e-09
8.52322e-08
6.52638e-07
4.21716e-06
2.08432e-05
6.83464e-05
0.000139513
0.000207056
0.000553488
0.00232494
0.00824752
0.0287158
0.0931597
0.161049
0.20904
0.226644
0.229657
0.229972
0.229998
0.23
6.21106e-09
8.52322e-08
6.52638e-07
4.21716e-06
2.08432e-05
6.83464e-05
0.000139513
0.000207056
0.000553489
0.00232494
0.00824755
0.0287159
0.09316
0.16105
0.20904
0.226644
0.229657
0.229972
0.229998
0.23
6.19167e-09
8.49571e-08
6.5042e-07
4.20163e-06
2.07586e-05
6.80751e-05
0.000138885
0.000205983
0.000548372
0.0023045
0.00818378
0.0285339
0.0926121
0.160622
0.208615
0.226555
0.229647
0.229971
0.229998
0.23
6.15811e-09
8.44774e-08
6.46377e-07
4.17131e-06
2.05914e-05
6.74924e-05
0.000137555
0.000203719
0.000537925
0.00226265
0.00805311
0.0281609
0.0914961
0.159777
0.207885
0.226398
0.229629
0.22997
0.229998
0.23
6.11798e-09
8.39065e-08
6.41573e-07
4.13593e-06
2.03751e-05
6.6583e-05
0.000135478
0.00020019
0.000522285
0.00219919
0.00785329
0.0275877
0.0897912
0.158518
0.207013
0.226158
0.229598
0.229967
0.229998
0.23
6.07503e-09
8.32958e-08
6.36419e-07
4.09734e-06
2.01442e-05
6.55549e-05
0.00013254
0.000195263
0.000501652
0.0021139
0.00757919
0.0267958
0.0874386
0.156746
0.205632
0.22576
0.229545
0.229962
0.229997
0.23
6.02966e-09
8.26578e-08
6.31131e-07
4.05828e-06
1.9881e-05
6.44333e-05
0.000129263
0.000188733
0.000476644
0.00200908
0.0072407
0.0257659
0.0843669
0.154326
0.20349
0.225347
0.229489
0.229957
0.229997
0.23
5.98218e-09
8.20084e-08
6.26085e-07
4.02276e-06
1.9635e-05
6.32335e-05
0.000125689
0.000181306
0.000448061
0.00188558
0.00682745
0.0244962
0.0805655
0.151211
0.200949
0.224789
0.229421
0.229951
0.229996
0.23
5.91805e-09
8.11491e-08
6.20093e-07
3.98787e-06
1.94197e-05
6.20214e-05
0.000121526
0.00017301
0.000417524
0.0017525
0.00636761
0.0230442
0.0761828
0.147476
0.198077
0.224062
0.229339
0.229944
0.229996
0.23
5.79844e-09
7.94537e-08
6.0802e-07
3.93248e-06
1.92451e-05
6.10526e-05
0.000117476
0.000164852
0.000391716
0.00162835
0.00592749
0.0215945
0.0717374
0.143437
0.195042
0.223227
0.229243
0.229937
0.229995
0.23
5.6979e-09
7.79609e-08
5.97792e-07
3.89729e-06
1.92034e-05
6.04962e-05
0.000114481
0.000158905
0.0003757
0.00155212
0.00562916
0.0205753
0.0685665
0.140469
0.193407
0.222817
0.22918
0.229932
0.229995
0.23
5.81795e-09
7.9652e-08
6.10029e-07
3.95859e-06
1.94413e-05
6.15954e-05
0.000118452
0.000166407
0.000399527
0.00166592
0.00602658
0.0218897
0.072653
0.144147
0.195559
0.223373
0.229259
0.229938
0.229995
0.23
5.91802e-09
8.11488e-08
6.20092e-07
3.98787e-06
1.94198e-05
6.20215e-05
0.000121526
0.00017301
0.000417525
0.0017525
0.00636761
0.0230442
0.0761827
0.147476
0.198077
0.224062
0.229339
0.229944
0.229996
0.23
6.02169e-09
8.25607e-08
6.29529e-07
4.02858e-06
1.9556e-05
6.2845e-05
0.000125635
0.000181864
0.000445893
0.0018918
0.00685953
0.0246357
0.0809272
0.151566
0.201089
0.224766
0.229404
0.229949
0.229996
0.23
6.06902e-09
8.31627e-08
6.33405e-07
4.05036e-06
1.97198e-05
6.39555e-05
0.000129835
0.000190666
0.000479215
0.00203879
0.00736291
0.0261906
0.0854771
0.155252
0.203968
0.225408
0.22949
0.229957
0.229997
0.23
6.10496e-09
8.36377e-08
6.3705e-07
4.07672e-06
1.99051e-05
6.50693e-05
0.00013344
0.000198508
0.000510218
0.00217436
0.00781202
0.0275277
0.0893522
0.158233
0.20639
0.225878
0.22956
0.229963
0.229997
0.23
6.14216e-09
8.41463e-08
6.41282e-07
4.11012e-06
2.01407e-05
6.61533e-05
0.000136736
0.000205394
0.000537249
0.00228904
0.00818045
0.0286023
0.0924557
0.160532
0.208048
0.226371
0.229618
0.229968
0.229998
0.23
6.17828e-09
8.46523e-08
6.45574e-07
4.14444e-06
2.03518e-05
6.7149e-05
0.000139714
0.000210533
0.000559303
0.00238042
0.00846727
0.0294259
0.0948427
0.162314
0.209462
0.226678
0.229654
0.229971
0.229998
0.23
6.21246e-09
8.51373e-08
6.49827e-07
4.17631e-06
2.05569e-05
6.80385e-05
0.000141808
0.000214213
0.00057605
0.00244898
0.0086823
0.0300235
0.0965919
0.163695
0.210855
0.226932
0.229681
0.229973
0.229998
0.23
6.24176e-09
8.55568e-08
6.53491e-07
4.20437e-06
2.07157e-05
6.86068e-05
0.000143147
0.000216575
0.000587219
0.00249405
0.00882144
0.0304087
0.0977192
0.164562
0.211514
0.227062
0.229696
0.229975
0.229998
0.23
6.2583e-09
8.57892e-08
6.55412e-07
4.21766e-06
2.0789e-05
6.88728e-05
0.00014377
0.000217696
0.000592672
0.00251596
0.00888879
0.0305944
0.098262
0.164975
0.211798
0.227117
0.229702
0.229975
0.229998
0.23
6.25831e-09
8.57892e-08
6.55412e-07
4.21766e-06
2.0789e-05
6.88729e-05
0.00014377
0.000217696
0.000592671
0.00251596
0.00888879
0.0305944
0.098262
0.164975
0.211798
0.227117
0.229702
0.229975
0.229998
0.23
6.24176e-09
8.55568e-08
6.53491e-07
4.20437e-06
2.07157e-05
6.86068e-05
0.000143147
0.000216574
0.000587217
0.00249405
0.00882143
0.0304087
0.0977192
0.164562
0.211514
0.227062
0.229696
0.229975
0.229998
0.23
6.21247e-09
8.51374e-08
6.49827e-07
4.1763e-06
2.05568e-05
6.80385e-05
0.000141808
0.000214212
0.000576048
0.00244898
0.00868228
0.0300234
0.0965919
0.163695
0.210855
0.226932
0.229681
0.229973
0.229998
0.23
6.17829e-09
8.46523e-08
6.45574e-07
4.14444e-06
2.03518e-05
6.71489e-05
0.000139714
0.000210533
0.000559301
0.00238041
0.00846725
0.0294258
0.0948427
0.162314
0.209462
0.226678
0.229654
0.229971
0.229998
0.23
6.14218e-09
8.41464e-08
6.41282e-07
4.11011e-06
2.01407e-05
6.61533e-05
0.000136736
0.000205394
0.000537248
0.00228904
0.00818045
0.0286024
0.0924559
0.160532
0.208049
0.226371
0.229618
0.229968
0.229998
0.23
6.10498e-09
8.36379e-08
6.3705e-07
4.07671e-06
1.99051e-05
6.50692e-05
0.00013344
0.000198508
0.000510218
0.00217436
0.00781204
0.0275278
0.0893526
0.158233
0.20639
0.225878
0.22956
0.229963
0.229997
0.23
6.06905e-09
8.31629e-08
6.33405e-07
4.05036e-06
1.97198e-05
6.39554e-05
0.000129835
0.000190666
0.000479214
0.00203878
0.00736291
0.0261906
0.0854771
0.155252
0.203968
0.225408
0.22949
0.229957
0.229997
0.23
6.02172e-09
8.25609e-08
6.2953e-07
4.02858e-06
1.95559e-05
6.28449e-05
0.000125635
0.000181863
0.000445893
0.0018918
0.00685953
0.0246357
0.0809272
0.151565
0.201089
0.224766
0.229404
0.229949
0.229996
0.23
5.91806e-09
8.11491e-08
6.20093e-07
3.98787e-06
1.94197e-05
6.20214e-05
0.000121526
0.00017301
0.000417525
0.0017525
0.00636762
0.0230443
0.0761829
0.147476
0.198077
0.224062
0.229339
0.229944
0.229996
0.23
5.81799e-09
7.96523e-08
6.1003e-07
3.95859e-06
1.94413e-05
6.15954e-05
0.000118452
0.000166407
0.000399527
0.00166593
0.00602658
0.0218898
0.0726531
0.144147
0.19556
0.223373
0.229259
0.229938
0.229995
0.23
5.89673e-09
8.07275e-08
6.17891e-07
4.00597e-06
1.97048e-05
6.29262e-05
0.000122522
0.000174241
0.000428096
0.00178929
0.00644916
0.0232363
0.0768019
0.147805
0.198288
0.224132
0.229358
0.229947
0.229996
0.23
5.98216e-09
8.20082e-08
6.26085e-07
4.02276e-06
1.9635e-05
6.32336e-05
0.000125689
0.000181306
0.000448062
0.00188558
0.00682744
0.0244962
0.0805655
0.151211
0.200949
0.224789
0.229421
0.229951
0.229996
0.23
6.06902e-09
8.31627e-08
6.33405e-07
4.05036e-06
1.97198e-05
6.39555e-05
0.000129835
0.000190666
0.000479215
0.00203879
0.00736291
0.0261906
0.0854771
0.155252
0.203968
0.225408
0.22949
0.229957
0.229997
0.23
6.10243e-09
8.3579e-08
6.3589e-07
4.06272e-06
1.98391e-05
6.4979e-05
0.000134048
0.00019991
0.000515604
0.00219809
0.00790165
0.0278128
0.090087
0.158781
0.206717
0.22594
0.229566
0.229964
0.229997
0.23
6.12874e-09
8.39339e-08
6.38794e-07
4.08619e-06
2.00186e-05
6.6029e-05
0.000137656
0.000208108
0.000549202
0.00234387
0.00837873
0.0291922
0.0939799
0.161657
0.208781
0.226504
0.22963
0.229969
0.229998
0.23
6.15679e-09
8.43218e-08
6.42018e-07
4.11167e-06
2.02217e-05
6.70501e-05
0.000140957
0.000215302
0.000578371
0.00246659
0.00876911
0.0302945
0.0971035
0.164008
0.210757
0.226898
0.229675
0.229973
0.229998
0.23
6.18901e-09
8.47666e-08
6.45756e-07
4.14187e-06
2.04221e-05
6.80065e-05
0.000143955
0.000220624
0.000601977
0.00256339
0.00906996
0.0311304
0.0994796
0.165804
0.212069
0.227149
0.229703
0.229975
0.229998
0.23
6.22143e-09
8.52145e-08
6.49287e-07
4.17062e-06
2.06129e-05
6.88707e-05
0.000146049
0.000224405
0.00061971
0.00263475
0.00928858
0.0317282
0.101186
0.167097
0.212885
0.227302
0.22972
0.229977
0.229998
0.23
6.24772e-09
8.559e-08
6.52578e-07
4.1965e-06
2.07613e-05
6.94196e-05
0.000147386
0.000226829
0.000631532
0.00268186
0.00943274
0.0321111
0.102281
0.167924
0.213358
0.227393
0.229731
0.229977
0.229998
0.23
6.26238e-09
8.57971e-08
6.54285e-07
4.20839e-06
2.0828e-05
6.9675e-05
0.000148012
0.000227979
0.000637284
0.00270464
0.00950183
0.0322946
0.102805
0.168316
0.213569
0.227434
0.229735
0.229978
0.229998
0.23
6.26238e-09
8.57971e-08
6.54285e-07
4.20839e-06
2.0828e-05
6.9675e-05
0.000148012
0.000227978
0.000637284
0.00270464
0.00950182
0.0322946
0.102805
0.168316
0.213569
0.227434
0.229735
0.229978
0.229998
0.23
6.24773e-09
8.559e-08
6.52577e-07
4.1965e-06
2.07613e-05
6.94196e-05
0.000147386
0.000226829
0.000631531
0.00268185
0.00943272
0.0321111
0.102281
0.167924
0.213358
0.227393
0.229731
0.229977
0.229998
0.23
6.22143e-09
8.52145e-08
6.49287e-07
4.17061e-06
2.06129e-05
6.88706e-05
0.000146048
0.000224405
0.000619708
0.00263475
0.00928856
0.0317281
0.101186
0.167097
0.212885
0.227302
0.22972
0.229977
0.229998
0.23
6.18902e-09
8.47667e-08
6.45756e-07
4.14187e-06
2.04221e-05
6.80063e-05
0.000143955
0.000220624
0.000601974
0.00256338
0.00906994
0.0311304
0.0994796
0.165804
0.212069
0.227149
0.229703
0.229975
0.229998
0.23
6.15681e-09
8.43218e-08
6.42018e-07
4.11167e-06
2.02216e-05
6.705e-05
0.000140957
0.000215301
0.00057837
0.00246659
0.00876912
0.0302946
0.0971038
0.164009
0.210757
0.226898
0.229675
0.229973
0.229998
0.23
6.12875e-09
8.39341e-08
6.38794e-07
4.08618e-06
2.00186e-05
6.60289e-05
0.000137655
0.000208108
0.000549202
0.00234388
0.00837878
0.0291923
0.0939804
0.161657
0.208781
0.226504
0.22963
0.229969
0.229998
0.23
6.10244e-09
8.35792e-08
6.3589e-07
4.06272e-06
1.9839e-05
6.49789e-05
0.000134048
0.00019991
0.000515603
0.00219809
0.00790164
0.0278128
0.090087
0.158781
0.206717
0.22594
0.229566
0.229964
0.229997
0.23
6.06906e-09
8.3163e-08
6.33406e-07
4.05036e-06
1.97198e-05
6.39554e-05
0.000129835
0.000190666
0.000479214
0.00203878
0.0073629
0.0261905
0.085477
0.155252
0.203968
0.225408
0.22949
0.229957
0.229997
0.23
5.98219e-09
8.20085e-08
6.26086e-07
4.02276e-06
1.9635e-05
6.32335e-05
0.000125689
0.000181306
0.000448062
0.00188558
0.00682745
0.0244963
0.0805656
0.151211
0.200949
0.224789
0.229421
0.229951
0.229996
0.23
5.89677e-09
8.07278e-08
6.17892e-07
4.00597e-06
1.97048e-05
6.29262e-05
0.000122522
0.000174241
0.000428096
0.00178929
0.00644917
0.0232363
0.0768021
0.147805
0.198288
0.224132
0.229358
0.229947
0.229996
0.23
5.95673e-09
8.15659e-08
6.24619e-07
4.05388e-06
1.99927e-05
6.42183e-05
0.000126076
0.000181254
0.000454933
0.00190396
0.00682826
0.0244302
0.0804607
0.150901
0.200778
0.224787
0.229439
0.229954
0.229997
0.23
6.02964e-09
8.26577e-08
6.31131e-07
4.05828e-06
1.9881e-05
6.44334e-05
0.000129263
0.000188733
0.000476646
0.00200908
0.00724071
0.0257659
0.0843668
0.154326
0.20349
0.225347
0.229489
0.229957
0.229997
0.23
6.10496e-09
8.36377e-08
6.3705e-07
4.07672e-06
1.99051e-05
6.50693e-05
0.00013344
0.000198508
0.000510218
0.00217436
0.00781202
0.0275277
0.0893522
0.158233
0.20639
0.225878
0.22956
0.229963
0.229997
0.23
6.12874e-09
8.39339e-08
6.38794e-07
4.08619e-06
2.00186e-05
6.6029e-05
0.000137656
0.000208108
0.000549202
0.00234387
0.00837873
0.0291922
0.0939799
0.161657
0.208781
0.226504
0.22963
0.229969
0.229998
0.23
6.15024e-09
8.42258e-08
6.41167e-07
4.10575e-06
2.01826e-05
6.7031e-05
0.000141248
0.000216563
0.000584838
0.00249731
0.00887467
0.0305957
0.0978802
0.164577
0.211145
0.226957
0.22968
0.229973
0.229998
0.23
6.17488e-09
8.45716e-08
6.44168e-07
4.131e-06
2.03711e-05
6.80138e-05
0.00014454
0.000223963
0.000615569
0.00262544
0.0092771
0.031703
0.100963
0.166877
0.21265
0.227245
0.229712
0.229976
0.229998
0.23
6.20327e-09
8.49722e-08
6.47627e-07
4.15879e-06
2.05574e-05
6.89389e-05
0.000147543
0.000229397
0.00064028
0.00272583
0.00958606
0.0325343
0.103285
0.168613
0.213636
0.227435
0.229734
0.229978
0.229998
0.23
6.23175e-09
8.53727e-08
6.5101e-07
4.1853e-06
2.07376e-05
6.97822e-05
0.000149628
0.00023323
0.000658676
0.00279894
0.00980703
0.0331232
0.104937
0.169851
0.214278
0.227561
0.229748
0.229979
0.229998
0.23
6.25607e-09
8.57175e-08
6.54025e-07
4.20949e-06
2.08794e-05
7.03156e-05
0.00015096
0.000235677
0.000670858
0.00284673
0.00995063
0.0334978
0.105991
0.170641
0.214665
0.227638
0.229757
0.22998
0.229998
0.23
6.26954e-09
8.59068e-08
6.55582e-07
4.22043e-06
2.09425e-05
7.05631e-05
0.000151584
0.000236836
0.000676788
0.00286995
0.0100205
0.0336763
0.106493
0.171013
0.214841
0.227672
0.229761
0.22998
0.229998
0.23
6.26954e-09
8.59068e-08
6.55582e-07
4.22043e-06
2.09425e-05
7.05631e-05
0.000151584
0.000236836
0.000676788
0.00286995
0.0100205
0.0336763
0.106493
0.171013
0.214841
0.227672
0.229761
0.22998
0.229998
0.23
6.25607e-09
8.57175e-08
6.54025e-07
4.20949e-06
2.08794e-05
7.03156e-05
0.00015096
0.000235677
0.000670857
0.00284673
0.00995063
0.0334978
0.105991
0.170641
0.214665
0.227638
0.229757
0.22998
0.229998
0.23
6.23175e-09
8.53727e-08
6.51009e-07
4.1853e-06
2.07376e-05
6.97822e-05
0.000149628
0.00023323
0.000658675
0.00279894
0.00980703
0.0331232
0.104937
0.169851
0.214278
0.227561
0.229748
0.229979
0.229998
0.23
6.20327e-09
8.49722e-08
6.47626e-07
4.15878e-06
2.05574e-05
6.89388e-05
0.000147543
0.000229396
0.000640279
0.00272583
0.00958606
0.0325343
0.103285
0.168613
0.213637
0.227435
0.229734
0.229978
0.229998
0.23
6.17488e-09
8.45717e-08
6.44168e-07
4.13099e-06
2.0371e-05
6.80137e-05
0.00014454
0.000223963
0.000615568
0.00262544
0.00927711
0.0317031
0.100963
0.166877
0.21265
0.227245
0.229712
0.229976
0.229998
0.23
6.15025e-09
8.42259e-08
6.41166e-07
4.10575e-06
2.01826e-05
6.70309e-05
0.000141248
0.000216563
0.000584837
0.00249731
0.00887468
0.0305957
0.0978805
0.164577
0.211145
0.226957
0.22968
0.229973
0.229998
0.23
6.12876e-09
8.39341e-08
6.38794e-07
4.08619e-06
2.00186e-05
6.60289e-05
0.000137656
0.000208107
0.000549201
0.00234387
0.00837875
0.0291922
0.0939801
0.161657
0.208781
0.226504
0.22963
0.229969
0.229998
0.23
6.10499e-09
8.36379e-08
6.3705e-07
4.07671e-06
1.99051e-05
6.50692e-05
0.00013344
0.000198508
0.000510218
0.00217436
0.00781202
0.0275278
0.0893524
0.158233
0.20639
0.225878
0.22956
0.229963
0.229997
0.23
6.02967e-09
8.2658e-08
6.31132e-07
4.05828e-06
1.9881e-05
6.44333e-05
0.000129263
0.000188733
0.000476646
0.00200909
0.00724072
0.0257659
0.0843671
0.154326
0.20349
0.225347
0.229489
0.229957
0.229997
0.23
5.95677e-09
8.15662e-08
6.2462e-07
4.05388e-06
1.99927e-05
6.42183e-05
0.000126076
0.000181254
0.000454932
0.00190396
0.00682826
0.0244302
0.0804611
0.150901
0.200778
0.224787
0.229439
0.229954
0.229997
0.23
6.00936e-09
8.23141e-08
6.30883e-07
4.10209e-06
2.02703e-05
6.53967e-05
0.00012931
0.000187416
0.000478541
0.0020023
0.00714499
0.0254083
0.0834531
0.153375
0.202903
0.225297
0.229501
0.229959
0.229997
0.23
6.07501e-09
8.32957e-08
6.36419e-07
4.09735e-06
2.01443e-05
6.5555e-05
0.000132541
0.000195264
0.000501654
0.00211391
0.0075792
0.0267958
0.0874385
0.156746
0.205631
0.22576
0.229545
0.229962
0.229997
0.23
6.14216e-09
8.41463e-08
6.41282e-07
4.11012e-06
2.01407e-05
6.61533e-05
0.000136736
0.000205394
0.000537249
0.00228904
0.00818045
0.0286023
0.0924557
0.160532
0.208048
0.226371
0.229618
0.229968
0.229998
0.23
6.15679e-09
8.43218e-08
6.42018e-07
4.11167e-06
2.02217e-05
6.70501e-05
0.000140957
0.000215302
0.000578371
0.00246659
0.00876911
0.0302945
0.0971035
0.164008
0.210757
0.226898
0.229675
0.229973
0.229998
0.23
6.17488e-09
8.45716e-08
6.44168e-07
4.131e-06
2.03711e-05
6.80138e-05
0.00014454
0.000223963
0.000615569
0.00262544
0.0092771
0.031703
0.100963
0.166877
0.21265
0.227245
0.229712
0.229976
0.229998
0.23
6.19721e-09
8.48858e-08
6.46905e-07
4.1544e-06
2.05485e-05
6.89688e-05
0.000147815
0.000231512
0.000647411
0.00275699
0.00968633
0.0328025
0.103982
0.169115
0.21388
0.22748
0.229739
0.229978
0.229998
0.23
6.22354e-09
8.5258e-08
6.50128e-07
4.18058e-06
2.07259e-05
6.98686e-05
0.000150803
0.000237013
0.000672835
0.00285916
0.00999736
0.0336212
0.10624
0.170796
0.214715
0.227643
0.229757
0.22998
0.229998
0.23
6.24998e-09
8.56306e-08
6.53298e-07
4.20549e-06
2.08979e-05
7.06956e-05
0.000152865
0.000240879
0.000691681
0.00293326
0.0102195
0.0341971
0.107836
0.171985
0.21527
0.227753
0.22977
0.229981
0.229999
0.23
6.27256e-09
8.59505e-08
6.56101e-07
4.22821e-06
2.10342e-05
7.12168e-05
0.000154176
0.000243335
0.000704084
0.00298124
0.0103615
0.0345616
0.10885
0.172737
0.215608
0.22782
0.229778
0.229981
0.229999
0.23
6.28509e-09
8.61267e-08
6.57556e-07
4.23851e-06
2.10945e-05
7.14584e-05
0.000154788
0.000244497
0.00071011
0.00300453
0.0104307
0.0347347
0.10933
0.173089
0.215762
0.227851
0.229781
0.229982
0.229999
0.23
6.28509e-09
8.61266e-08
6.57556e-07
4.23851e-06
2.10945e-05
7.14584e-05
0.000154788
0.000244497
0.00071011
0.00300453
0.0104307
0.0347347
0.10933
0.173089
0.215762
0.227851
0.229781
0.229982
0.229999
0.23
6.27256e-09
8.59505e-08
6.56101e-07
4.2282e-06
2.10342e-05
7.12168e-05
0.000154176
0.000243335
0.000704084
0.00298124
0.0103615
0.0345616
0.10885
0.172737
0.215608
0.22782
0.229778
0.229981
0.229999
0.23
6.24998e-09
8.56306e-08
6.53298e-07
4.20548e-06
2.08979e-05
7.06956e-05
0.000152865
0.000240879
0.000691681
0.00293326
0.0102195
0.0341971
0.107836
0.171985
0.21527
0.227753
0.22977
0.229981
0.229999
0.23
6.22354e-09
8.5258e-08
6.50127e-07
4.18057e-06
2.07259e-05
6.98686e-05
0.000150803
0.000237013
0.000672835
0.00285916
0.00999736
0.0336213
0.10624
0.170796
0.214715
0.227643
0.229757
0.22998
0.229998
0.23
6.19722e-09
8.48858e-08
6.46904e-07
4.15439e-06
2.05484e-05
6.89687e-05
0.000147815
0.000231512
0.00064741
0.00275699
0.00968633
0.0328025
0.103982
0.169116
0.21388
0.22748
0.229739
0.229978
0.229998
0.23
6.17488e-09
8.45717e-08
6.44168e-07
4.13099e-06
2.0371e-05
6.80137e-05
0.00014454
0.000223963
0.000615568
0.00262544
0.0092771
0.031703
0.100963
0.166877
0.21265
0.227245
0.229712
0.229976
0.229998
0.23
6.15681e-09
8.43219e-08
6.42018e-07
4.11167e-06
2.02216e-05
6.705e-05
0.000140957
0.000215302
0.000578371
0.00246659
0.00876911
0.0302945
0.0971038
0.164009
0.210757
0.226898
0.229675
0.229973
0.229998
0.23
6.14219e-09
8.41465e-08
6.41282e-07
4.11011e-06
2.01407e-05
6.61533e-05
0.000136736
0.000205394
0.00053725
0.00228905
0.00818049
0.0286025
0.0924563
0.160533
0.208049
0.226371
0.229618
0.229968
0.229998
0.23
6.07504e-09
8.32959e-08
6.3642e-07
4.09734e-06
2.01442e-05
6.5555e-05
0.000132541
0.000195263
0.000501653
0.00211391
0.00757923
0.0267959
0.087439
0.156747
0.205632
0.22576
0.229545
0.229962
0.229997
0.23
6.0094e-09
8.23144e-08
6.30884e-07
4.10209e-06
2.02702e-05
6.53967e-05
0.00012931
0.000187415
0.000478541
0.00200231
0.00714501
0.0254084
0.0834536
0.153376
0.202903
0.225298
0.229501
0.229959
0.229997
0.23
6.06129e-09
8.30534e-08
6.37058e-07
4.14703e-06
2.05313e-05
6.65016e-05
0.000132191
0.000192096
0.000498106
0.00208274
0.00740223
0.0261645
0.0857634
0.155228
0.204684
0.225639
0.229542
0.229963
0.229997
0.23
6.11797e-09
8.39064e-08
6.41573e-07
4.13594e-06
2.03751e-05
6.65831e-05
0.000135478
0.00020019
0.000522288
0.0021992
0.0078533
0.0275877
0.0897912
0.158518
0.207013
0.226157
0.229598
0.229967
0.229998
0.23
6.17828e-09
8.46523e-08
6.45574e-07
4.14444e-06
2.03518e-05
6.7149e-05
0.000139714
0.000210533
0.000559303
0.00238042
0.00846727
0.0294259
0.0948427
0.162314
0.209462
0.226678
0.229654
0.229971
0.229998
0.23
6.18901e-09
8.47666e-08
6.45756e-07
4.14187e-06
2.04221e-05
6.80065e-05
0.000143955
0.000220624
0.000601977
0.00256339
0.00906996
0.0311304
0.0994796
0.165804
0.212069
0.227149
0.229703
0.229975
0.229998
0.23
6.20327e-09
8.49722e-08
6.47627e-07
4.15879e-06
2.05574e-05
6.89389e-05
0.000147543
0.000229397
0.00064028
0.00272583
0.00958606
0.0325343
0.103285
0.168613
0.213636
0.227435
0.229734
0.229978
0.229998
0.23
6.22354e-09
8.5258e-08
6.50128e-07
4.18058e-06
2.07259e-05
6.98686e-05
0.000150803
0.000237013
0.000672835
0.00285916
0.00999736
0.0336212
0.10624
0.170796
0.214715
0.227643
0.229757
0.22998
0.229998
0.23
6.24823e-09
8.56076e-08
6.53177e-07
4.20566e-06
2.08973e-05
7.07426e-05
0.000153782
0.000242537
0.000698712
0.00296219
0.0103084
0.0344255
0.108438
0.172421
0.215462
0.22779
0.229774
0.229981
0.229999
0.23
6.2732e-09
8.59597e-08
6.56193e-07
4.22968e-06
2.10629e-05
7.15489e-05
0.000155827
0.000246411
0.000717839
0.00303667
0.0105299
0.0349887
0.109985
0.173562
0.215964
0.227889
0.229785
0.229982
0.229999
0.23
6.29439e-09
8.62595e-08
6.58773e-07
4.25018e-06
2.11953e-05
7.20538e-05
0.000157122
0.000248867
0.000730392
0.00308475
0.0106712
0.0353441
0.110963
0.174281
0.216271
0.22795
0.229792
0.229983
0.229999
0.23
6.30618e-09
8.64257e-08
6.60168e-07
4.26038e-06
2.12544e-05
7.22867e-05
0.000157726
0.000250026
0.000736469
0.00310798
0.0107395
0.0355125
0.111425
0.174616
0.216411
0.227978
0.229796
0.229983
0.229999
0.23
6.30618e-09
8.64257e-08
6.60168e-07
4.26038e-06
2.12544e-05
7.22867e-05
0.000157726
0.000250026
0.000736469
0.00310798
0.0107395
0.0355125
0.111425
0.174616
0.216411
0.227978
0.229796
0.229983
0.229999
0.23
6.29439e-09
8.62595e-08
6.58773e-07
4.25018e-06
2.11953e-05
7.20538e-05
0.000157122
0.000248867
0.000730391
0.00308475
0.0106712
0.0353441
0.110963
0.174281
0.216271
0.22795
0.229792
0.229983
0.229999
0.23
6.2732e-09
8.59597e-08
6.56193e-07
4.22968e-06
2.10629e-05
7.15488e-05
0.000155827
0.000246411
0.000717839
0.00303667
0.0105299
0.0349888
0.109985
0.173562
0.215964
0.227889
0.229785
0.229982
0.229999
0.23
6.24823e-09
8.56076e-08
6.53176e-07
4.20566e-06
2.08972e-05
7.07425e-05
0.000153782
0.000242537
0.000698712
0.00296219
0.0103084
0.0344255
0.108438
0.172421
0.215462
0.22779
0.229774
0.229981
0.229999
0.23
6.22354e-09
8.52581e-08
6.50127e-07
4.18057e-06
2.07259e-05
6.98686e-05
0.000150803
0.000237013
0.000672836
0.00285916
0.00999737
0.0336213
0.106241
0.170796
0.214715
0.227643
0.229757
0.22998
0.229998
0.23
6.20327e-09
8.49723e-08
6.47627e-07
4.15878e-06
2.05574e-05
6.89388e-05
0.000147543
0.000229397
0.000640281
0.00272584
0.00958607
0.0325344
0.103285
0.168613
0.213637
0.227435
0.229734
0.229978
0.229998
0.23
6.18903e-09
8.47668e-08
6.45756e-07
4.14187e-06
2.04221e-05
6.80064e-05
0.000143955
0.000220624
0.000601977
0.00256339
0.00906998
0.0311305
0.09948
0.165804
0.21207
0.227149
0.229703
0.229975
0.229998
0.23
6.17831e-09
8.46525e-08
6.45574e-07
4.14444e-06
2.03518e-05
6.71489e-05
0.000139714
0.000210533
0.000559303
0.00238042
0.0084673
0.029426
0.0948432
0.162314
0.209462
0.226678
0.229654
0.229971
0.229998
0.23
6.118e-09
8.39067e-08
6.41574e-07
4.13593e-06
2.03751e-05
6.6583e-05
0.000135478
0.00020019
0.000522288
0.00219921
0.00785333
0.0275878
0.0897916
0.158519
0.207013
0.226158
0.229598
0.229967
0.229998
0.23
6.06133e-09
8.30537e-08
6.37058e-07
4.14703e-06
2.05313e-05
6.65016e-05
0.000132191
0.000192096
0.000498105
0.00208274
0.00740225
0.0261646
0.0857639
0.155228
0.204684
0.225639
0.229542
0.229963
0.229997
0.23
6.1088e-09
8.37268e-08
6.4265e-07
4.18807e-06
2.0781e-05
6.74618e-05
0.000134237
0.000195454
0.000512913
0.00214241
0.00758883
0.0267105
0.0874297
0.156515
0.205879
0.225905
0.229574
0.229965
0.229997
0.23
6.1581e-09
8.44774e-08
6.46377e-07
4.17131e-06
2.05915e-05
6.74925e-05
0.000137555
0.00020372
0.000537927
0.00226265
0.00805311
0.0281609
0.091496
0.159776
0.207885