/*--------------------------------*- C++ -*----------------------------------*\
  =========                 |
  \\      /  F ield         | OpenFOAM: The Open Source CFD Toolbox
   \\    /   O peration     | Website:  https://openfoam.org
    \\  /    A nd           | Version:  7
     \\/     M anipulation  |
\*---------------------------------------------------------------------------*/
FoamFile
{
    version     2.0;
    format      ascii;
    class       surfaceScalarField;
    location    "0.5";
    object      phi;
}
// * * * * * * * * * * * * * * * * * * * * * * * * * * * * * * * * * * * * * //

dimensions      [1 0 -1 0 0 0 0];

internalField   nonuniform List<scalar> 
22800
(
6.47463e-08
-1.52753e-09
-1.52753e-09
6.11989e-08
-6.14969e-09
-6.14969e-09
5.33385e-08
-1.3357e-08
-1.3357e-08
3.91556e-08
-2.46886e-08
-2.46886e-08
2.16759e-08
-3.59819e-08
-3.59819e-08
6.91371e-09
-3.93304e-08
-3.93304e-08
-3.54772e-09
-3.71016e-08
-3.71016e-08
-1.06205e-08
-3.25906e-08
-3.25906e-08
-1.52604e-08
-2.74923e-08
-2.74923e-08
-1.82753e-08
-2.30229e-08
-2.30229e-08
-2.03277e-08
-2.00253e-08
-2.00253e-08
-2.25325e-08
-1.87006e-08
-1.87006e-08
-2.66298e-08
-2.03502e-08
-2.03502e-08
-3.47622e-08
-2.57689e-08
-2.57689e-08
-5.10113e-08
-3.29238e-08
-3.29238e-08
-7.77153e-08
-3.85488e-08
-3.85488e-08
-1.00861e-07
-2.80653e-08
-2.80653e-08
-1.12413e-07
-1.54837e-08
-1.54837e-08
-1.17134e-07
-7.16316e-09
-7.16316e-09
-1.88647e-09
-1.88647e-09
6.46059e-08
-1.15966e-09
-3.39231e-09
6.07461e-08
-4.79582e-09
-1.10577e-08
5.27707e-08
-1.04442e-08
-2.08958e-08
3.90428e-08
-1.94283e-08
-3.34515e-08
2.22772e-08
-2.91231e-08
-4.33746e-08
7.79974e-09
-3.29643e-08
-4.45039e-08
-2.8135e-09
-3.21074e-08
-4.06114e-08
-1.01772e-08
-2.8941e-08
-3.49864e-08
-1.51224e-08
-2.4905e-08
-2.90985e-08
-1.84383e-08
-2.11523e-08
-2.41179e-08
-2.08597e-08
-1.84936e-08
-2.08964e-08
-2.34727e-08
-1.70861e-08
-1.9724e-08
-2.78292e-08
-1.80998e-08
-2.21968e-08
-3.60696e-08
-2.1927e-08
-2.9231e-08
-5.16938e-08
-2.64402e-08
-3.96027e-08
-7.68981e-08
-2.89733e-08
-5.12118e-08
-9.93376e-08
-2.02935e-08
-4.42641e-08
-1.11388e-07
-1.14443e-08
-2.83891e-08
-1.16793e-07
-5.37759e-09
-1.50197e-08
-1.39951e-09
-4.72051e-09
6.4476e-08
-8.6641e-10
-5.06371e-09
6.03138e-08
-3.68644e-09
-1.57419e-08
5.2066e-08
-8.20505e-09
-2.79315e-08
3.86747e-08
-1.57299e-08
-4.11047e-08
2.27616e-08
-2.41681e-08
-4.98463e-08
8.7093e-09
-2.7836e-08
-4.94453e-08
-1.98356e-09
-2.75588e-08
-4.4402e-08
-9.69198e-09
-2.52416e-08
-3.78901e-08
-1.50631e-08
-2.20184e-08
-3.12779e-08
-1.88122e-08
-1.88676e-08
-2.57926e-08
-2.16677e-08
-1.65069e-08
-2.23789e-08
-2.4697e-08
-1.50974e-08
-2.14001e-08
-2.94146e-08
-1.57004e-08
-2.47753e-08
-3.77794e-08
-1.84424e-08
-3.34802e-08
-5.2804e-08
-2.1495e-08
-4.65963e-08
-7.63787e-08
-2.27464e-08
-6.1921e-08
-9.82299e-08
-1.52753e-08
-5.67223e-08
-1.10873e-07
-8.36114e-09
-3.92361e-08
-1.1666e-07
-3.93304e-09
-2.18191e-08
-1.01591e-09
-7.08927e-09
6.44369e-08
-6.46959e-10
-6.4024e-09
6.01971e-08
-2.83633e-09
-1.9526e-08
5.18886e-08
-6.50012e-09
-3.34819e-08
3.86579e-08
-1.2819e-08
-4.70243e-08
2.30383e-08
-2.00186e-08
-5.48931e-08
9.13759e-09
-2.33228e-08
-5.34336e-08
-1.60268e-09
-2.33262e-08
-4.76492e-08
-9.53278e-09
-2.15751e-08
-4.05738e-08
-1.52173e-08
-1.89702e-08
-3.34597e-08
-1.92997e-08
-1.63277e-08
-2.76028e-08
-2.24696e-08
-1.42585e-08
-2.40466e-08
-2.57818e-08
-1.29396e-08
-2.32267e-08
-3.07429e-08
-1.331e-08
-2.73844e-08
-3.92289e-08
-1.53211e-08
-3.74163e-08
-5.4126e-08
-1.75199e-08
-5.27747e-08
-7.71521e-08
-1.80257e-08
-7.05151e-08
-9.85045e-08
-1.16541e-08
-6.59892e-08
-1.10933e-07
-6.21431e-09
-4.74252e-08
-1.16664e-07
-2.86245e-09
-2.7095e-08
-7.34267e-10
-8.92609e-09
6.44347e-08
-4.8303e-10
-7.45026e-09
6.01863e-08
-2.17047e-09
-2.24938e-08
5.18382e-08
-5.11291e-09
-3.78213e-08
3.86721e-08
-1.03323e-08
-5.16967e-08
2.31904e-08
-1.63306e-08
-5.89281e-08
9.33224e-09
-1.91625e-08
-5.6659e-08
-1.47949e-09
-1.92804e-08
-5.03354e-08
-9.58014e-09
-1.79339e-08
-4.28772e-08
-1.54852e-08
-1.58353e-08
-3.54162e-08
-1.97916e-08
-1.36522e-08
-2.92982e-08
-2.31558e-08
-1.18889e-08
-2.56368e-08
-2.66434e-08
-1.07304e-08
-2.49263e-08
-3.17751e-08
-1.09731e-08
-2.97429e-08
-4.04028e-08
-1.24658e-08
-4.0804e-08
-5.54022e-08
-1.41164e-08
-5.81094e-08
-7.81468e-08
-1.42048e-08
-7.74942e-08
-9.90378e-08
-8.85936e-09
-7.30934e-08
-1.11172e-07
-4.62022e-09
-5.35916e-08
-1.16718e-07
-2.07731e-09
-3.10918e-08
-5.31908e-10
-1.03211e-08
6.44427e-08
-3.55938e-10
-8.25875e-09
6.02078e-08
-1.62921e-09
-2.47875e-08
5.18407e-08
-3.92686e-09
-4.11769e-08
3.86922e-08
-8.0855e-09
-5.53338e-08
2.3253e-08
-1.28856e-08
-6.2098e-08
9.37872e-09
-1.51903e-08
-5.92062e-08
-1.50662e-09
-1.53397e-08
-5.24871e-08
-9.73083e-09
-1.4313e-08
-4.47587e-08
-1.57807e-08
-1.26635e-08
-3.70598e-08
-2.02251e-08
-1.09195e-08
-3.07607e-08
-2.36971e-08
-9.48166e-09
-2.70215e-08
-2.72879e-08
-8.52706e-09
-2.63821e-08
-3.25401e-08
-8.70002e-09
-3.17281e-08
-4.13152e-08
-9.79585e-09
-4.35738e-08
-5.65304e-08
-1.10291e-08
-6.25737e-08
-7.91226e-08
-1.09284e-08
-8.30382e-08
-9.95856e-08
-6.61502e-09
-7.8497e-08
-1.11414e-07
-3.38978e-09
-5.82062e-08
-1.16775e-07
-1.48611e-09
-3.40758e-08
-3.8163e-10
-1.13631e-08
6.44508e-08
-2.51825e-10
-8.86732e-09
6.02291e-08
-1.16769e-09
-2.65177e-08
5.18429e-08
-2.86355e-09
-4.37143e-08
3.8689e-08
-5.97613e-09
-5.80997e-08
2.32563e-08
-9.57784e-09
-6.4517e-08
9.35016e-09
-1.13245e-08
-6.11608e-08
-1.59829e-09
-1.14607e-08
-5.4149e-08
-9.90847e-09
-1.0712e-08
-4.62313e-08
-1.6049e-08
-9.48502e-09
-3.83679e-08
-2.05728e-08
-8.17449e-09
-3.19429e-08
-2.40992e-08
-7.0799e-09
-2.81449e-08
-2.77499e-08
-6.35262e-09
-2.7555e-08
-3.30868e-08
-6.48176e-09
-3.3305e-08
-4.20054e-08
-7.24943e-09
-4.5728e-08
-5.74832e-08
-8.16223e-09
-6.61533e-08
-7.98539e-08
-7.94579e-09
-8.73691e-08
-1.00007e-07
-4.68783e-09
-8.25227e-08
-1.1161e-07
-2.37615e-09
-6.15823e-08
-1.16822e-07
-1.02159e-09
-3.62538e-08
-2.64104e-10
-1.21233e-08
6.44569e-08
-1.61546e-10
-9.30346e-09
6.02436e-08
-7.55397e-10
-2.77605e-08
5.18399e-08
-1.87456e-09
-4.55416e-08
3.86729e-08
-3.94706e-09
-6.00992e-08
2.32317e-08
-6.34805e-09
-6.62701e-08
9.29375e-09
-7.51851e-09
-6.25781e-08
-1.70157e-09
-7.62e-09
-5.53618e-08
-1.00683e-08
-7.12926e-09
-4.73144e-08
-1.62634e-08
-6.31409e-09
-3.93399e-08
-2.08297e-08
-5.43784e-09
-3.283e-08
-2.43799e-08
-4.70067e-09
-2.89913e-08
-2.80639e-08
-4.21211e-09
-2.84334e-08
-3.34565e-08
-4.30327e-09
-3.4476e-08
-4.24713e-08
-4.79345e-09
-4.73084e-08
-5.81958e-08
-5.40638e-09
-6.87656e-08
-8.04464e-08
-5.19011e-09
-9.05426e-08
-1.00346e-07
-3.00427e-09
-8.53937e-08
-1.1176e-07
-1.51219e-09
-6.39576e-08
-1.16857e-07
-6.4046e-10
-3.77787e-08
-1.66713e-10
-1.26544e-08
6.44606e-08
-7.90339e-11
-9.58531e-09
6.02517e-08
-3.7131e-10
-2.8565e-08
5.18344e-08
-9.27618e-10
-4.67269e-08
3.86554e-08
-1.96248e-09
-6.13995e-08
2.32049e-08
-3.1608e-09
-6.74107e-08
9.24049e-09
-3.74495e-09
-6.35005e-08
-1.78528e-09
-3.80315e-09
-5.61532e-08
-1.01854e-08
-3.56051e-09
-4.80269e-08
-1.6411e-08
-3.15352e-09
-3.99823e-08
-2.09975e-08
-2.71449e-09
-3.34197e-08
-2.45562e-08
-2.34393e-09
-2.95557e-08
-2.82588e-08
-2.09865e-09
-2.90165e-08
-3.36885e-08
-2.14688e-09
-3.52496e-08
-4.27712e-08
-2.38555e-09
-4.83519e-08
-5.86466e-08
-2.69224e-09
-7.05313e-08
-8.08404e-08
-2.56534e-09
-9.26061e-08
-1.00573e-07
-1.46852e-09
-8.72398e-08
-1.11859e-07
-7.36314e-10
-6.54728e-08
-1.1688e-07
-3.08899e-10
-3.87479e-08
-8.07715e-11
-1.29913e-08
6.44623e-08
4.65631e-16
-9.72369e-09
6.02552e-08
1.6464e-15
-2.89604e-08
5.18313e-08
3.72615e-15
-4.73106e-08
3.86481e-08
6.53697e-15
-6.20411e-08
2.31987e-08
7.08692e-15
-6.79737e-08
9.20887e-09
4.97922e-15
-6.39574e-08
-1.83167e-09
2.72049e-15
-5.65434e-08
-1.02468e-08
1.21934e-15
-4.83802e-08
-1.64856e-08
1.55759e-16
-4.0302e-08
-2.108e-08
-4.19412e-16
-3.3714e-08
-2.46414e-08
-6.57622e-16
-2.98381e-08
-2.83522e-08
-9.46029e-16
-2.93073e-08
-3.38008e-08
-1.10216e-15
-3.56328e-08
-4.29189e-08
7.33033e-15
-4.88691e-08
-5.88647e-08
6.5312e-14
-7.14151e-08
-8.10307e-08
1.23439e-13
-9.36208e-08
-1.00685e-07
8.40502e-14
-8.81416e-08
-1.11907e-07
3.74924e-14
-6.62102e-08
-1.16892e-07
1.22278e-14
-3.92187e-08
2.81738e-15
-1.31549e-08
6.44623e-08
7.90347e-11
-9.72369e-09
6.02552e-08
3.71313e-10
-2.89604e-08
5.18313e-08
9.27626e-10
-4.73106e-08
3.86481e-08
1.9625e-09
-6.20411e-08
2.31987e-08
3.16081e-09
-6.79737e-08
9.20887e-09
3.74496e-09
-6.39574e-08
-1.83167e-09
3.80316e-09
-5.65434e-08
-1.02468e-08
3.56051e-09
-4.83802e-08
-1.64856e-08
3.15352e-09
-4.0302e-08
-2.108e-08
2.71449e-09
-3.3714e-08
-2.46414e-08
2.34393e-09
-2.98381e-08
-2.83522e-08
2.09865e-09
-2.93073e-08
-3.38008e-08
2.14688e-09
-3.56328e-08
-4.2919e-08
2.38557e-09
-4.88691e-08
-5.88649e-08
2.69234e-09
-7.14152e-08
-8.10309e-08
2.56549e-09
-9.36208e-08
-1.00685e-07
1.46862e-09
-8.81416e-08
-1.11907e-07
7.36358e-10
-6.62102e-08
-1.16892e-07
3.08914e-10
-3.92187e-08
8.07755e-11
-1.31549e-08
6.44606e-08
1.61547e-10
-9.58531e-09
6.02517e-08
7.554e-10
-2.8565e-08
5.18345e-08
1.87456e-09
-4.67269e-08
3.86554e-08
3.94707e-09
-6.13995e-08
2.32049e-08
6.34807e-09
-6.74107e-08
9.24049e-09
7.51852e-09
-6.35005e-08
-1.78527e-09
7.62e-09
-5.61532e-08
-1.01854e-08
7.12926e-09
-4.80269e-08
-1.6411e-08
6.31409e-09
-3.99823e-08
-2.09975e-08
5.43784e-09
-3.34197e-08
-2.45562e-08
4.70067e-09
-2.95557e-08
-2.82588e-08
4.21211e-09
-2.90166e-08
-3.36886e-08
4.30328e-09
-3.52496e-08
-4.27714e-08
4.79348e-09
-4.8352e-08
-5.86469e-08
5.40642e-09
-7.05315e-08
-8.08408e-08
5.1901e-09
-9.26062e-08
-1.00573e-07
3.00426e-09
-8.72398e-08
-1.11859e-07
1.51219e-09
-6.54728e-08
-1.1688e-07
6.40463e-10
-3.87479e-08
1.66715e-10
-1.29913e-08
6.44569e-08
2.51826e-10
-9.30346e-09
6.02436e-08
1.16769e-09
-2.77605e-08
5.18399e-08
2.86356e-09
-4.55416e-08
3.86729e-08
5.97614e-09
-6.00992e-08
2.32317e-08
9.57786e-09
-6.62701e-08
9.29376e-09
1.13245e-08
-6.25781e-08
-1.70157e-09
1.14607e-08
-5.53618e-08
-1.00683e-08
1.0712e-08
-4.73144e-08
-1.62634e-08
9.48502e-09
-3.93399e-08
-2.08297e-08
8.17449e-09
-3.283e-08
-2.43799e-08
7.0799e-09
-2.89913e-08
-2.80639e-08
6.35262e-09
-2.84334e-08
-3.34566e-08
6.48177e-09
-3.44761e-08
-4.24714e-08
7.24945e-09
-4.73084e-08
-5.8196e-08
8.16223e-09
-6.87657e-08
-8.04466e-08
7.94576e-09
-9.05427e-08
-1.00346e-07
4.68781e-09
-8.53936e-08
-1.1176e-07
2.37615e-09
-6.39576e-08
-1.16857e-07
1.02159e-09
-3.77787e-08
2.64105e-10
-1.26544e-08
6.44508e-08
3.55939e-10
-8.86731e-09
6.02291e-08
1.62922e-09
-2.65177e-08
5.18429e-08
3.92687e-09
-4.37143e-08
3.86891e-08
8.0855e-09
-5.80997e-08
2.32564e-08
1.28856e-08
-6.4517e-08
9.35018e-09
1.51903e-08
-6.11608e-08
-1.59828e-09
1.53397e-08
-5.41491e-08
-9.90846e-09
1.4313e-08
-4.62314e-08
-1.6049e-08
1.26635e-08
-3.83679e-08
-2.05728e-08
1.09195e-08
-3.19429e-08
-2.40992e-08
9.48166e-09
-2.81449e-08
-2.77499e-08
8.52706e-09
-2.75551e-08
-3.30868e-08
8.70002e-09
-3.33051e-08
-4.20054e-08
9.79585e-09
-4.5728e-08
-5.74833e-08
1.10291e-08
-6.61533e-08
-7.98539e-08
1.09283e-08
-8.73692e-08
-1.00007e-07
6.61502e-09
-8.25226e-08
-1.1161e-07
3.38978e-09
-6.15823e-08
-1.16822e-07
1.48611e-09
-3.62538e-08
3.81631e-10
-1.21233e-08
6.44427e-08
4.83031e-10
-8.25875e-09
6.02078e-08
2.17048e-09
-2.47875e-08
5.18407e-08
5.11291e-09
-4.11769e-08
3.86922e-08
1.03323e-08
-5.53338e-08
2.3253e-08
1.63306e-08
-6.2098e-08
9.37874e-09
1.91625e-08
-5.92062e-08
-1.50661e-09
1.92804e-08
-5.24871e-08
-9.73083e-09
1.79339e-08
-4.47587e-08
-1.57807e-08
1.58353e-08
-3.70599e-08
-2.02251e-08
1.36523e-08
-3.07607e-08
-2.36971e-08
1.18889e-08
-2.70215e-08
-2.72879e-08
1.07305e-08
-2.63821e-08
-3.25401e-08
1.09731e-08
-3.17282e-08
-4.13153e-08
1.24658e-08
-4.35739e-08
-5.65305e-08
1.41164e-08
-6.25738e-08
-7.91226e-08
1.42047e-08
-8.30383e-08
-9.95856e-08
8.85934e-09
-7.8497e-08
-1.11414e-07
4.62021e-09
-5.82061e-08
-1.16775e-07
2.0773e-09
-3.40758e-08
5.31909e-10
-1.13631e-08
6.44347e-08
6.46959e-10
-7.45025e-09
6.01863e-08
2.83633e-09
-2.24938e-08
5.18382e-08
6.50012e-09
-3.78213e-08
3.86722e-08
1.2819e-08
-5.16967e-08
2.31904e-08
2.00186e-08
-5.89281e-08
9.33226e-09
2.33228e-08
-5.6659e-08
-1.47948e-09
2.33262e-08
-5.03354e-08
-9.58013e-09
2.15751e-08
-4.28772e-08
-1.54852e-08
1.89702e-08
-3.54162e-08
-1.97916e-08
1.63277e-08
-2.92982e-08
-2.31558e-08
1.42585e-08
-2.56368e-08
-2.66434e-08
1.29397e-08
-2.49263e-08
-3.17751e-08
1.331e-08
-2.97429e-08
-4.04028e-08
1.53211e-08
-4.08041e-08
-5.54023e-08
1.75199e-08
-5.81096e-08
-7.81468e-08
1.80257e-08
-7.74942e-08
-9.90378e-08
1.16541e-08
-7.30934e-08
-1.11172e-07
6.21431e-09
-5.35915e-08
-1.16718e-07
2.86245e-09
-3.10917e-08
7.34268e-10
-1.03211e-08
6.44369e-08
8.6641e-10
-6.40239e-09
6.01971e-08
3.68644e-09
-1.9526e-08
5.18886e-08
8.20504e-09
-3.34819e-08
3.8658e-08
1.57298e-08
-4.70243e-08
2.30383e-08
2.41681e-08
-5.48931e-08
9.13761e-09
2.7836e-08
-5.34336e-08
-1.60267e-09
2.75588e-08
-4.76493e-08
-9.53278e-09
2.52416e-08
-4.05739e-08
-1.52173e-08
2.20184e-08
-3.34597e-08
-1.92997e-08
1.88676e-08
-2.76028e-08
-2.24696e-08
1.65069e-08
-2.40466e-08
-2.57819e-08
1.50974e-08
-2.32267e-08
-3.07429e-08
1.57004e-08
-2.73845e-08
-3.92289e-08
1.84424e-08
-3.74163e-08
-5.4126e-08
2.1495e-08
-5.27747e-08
-7.71521e-08
2.27464e-08
-7.05151e-08
-9.85045e-08
1.52753e-08
-6.59892e-08
-1.10933e-07
8.36114e-09
-4.74252e-08
-1.16664e-07
3.93303e-09
-2.7095e-08
1.01591e-09
-8.92608e-09
6.4476e-08
1.15966e-09
-5.0637e-09
6.03138e-08
4.79581e-09
-1.57419e-08
5.2066e-08
1.04442e-08
-2.79315e-08
3.86748e-08
1.94283e-08
-4.11047e-08
2.27617e-08
2.91231e-08
-4.98463e-08
8.70933e-09
3.29643e-08
-4.94453e-08
-1.98354e-09
3.21074e-08
-4.4402e-08
-9.69197e-09
2.8941e-08
-3.78901e-08
-1.50631e-08
2.4905e-08
-3.12779e-08
-1.88122e-08
2.11523e-08
-2.57926e-08
-2.16677e-08
1.84936e-08
-2.23789e-08
-2.4697e-08
1.70861e-08
-2.14001e-08
-2.94146e-08
1.80998e-08
-2.47753e-08
-3.77794e-08
2.1927e-08
-3.34802e-08
-5.28041e-08
2.64402e-08
-4.65963e-08
-7.63787e-08
2.89733e-08
-6.1921e-08
-9.82299e-08
2.02935e-08
-5.67223e-08
-1.10873e-07
1.14443e-08
-3.9236e-08
-1.1666e-07
5.37759e-09
-2.18191e-08
1.39951e-09
-7.08926e-09
6.46059e-08
1.52753e-09
-3.39231e-09
6.07461e-08
6.14969e-09
-1.10577e-08
5.27708e-08
1.3357e-08
-2.08958e-08
3.90428e-08
2.46886e-08
-3.34514e-08
2.22773e-08
3.59819e-08
-4.33746e-08
7.79977e-09
3.93304e-08
-4.45039e-08
-2.81348e-09
3.71016e-08
-4.06114e-08
-1.01772e-08
3.25906e-08
-3.49864e-08
-1.51224e-08
2.74924e-08
-2.90986e-08
-1.84383e-08
2.30229e-08
-2.41179e-08
-2.08597e-08
2.00253e-08
-2.08964e-08
-2.34727e-08
1.87006e-08
-1.9724e-08
-2.78292e-08
2.03502e-08
-2.21968e-08
-3.60696e-08
2.57689e-08
-2.92311e-08
-5.16938e-08
3.29238e-08
-3.96028e-08
-7.68982e-08
3.85488e-08
-5.12118e-08
-9.93376e-08
2.80653e-08
-4.42641e-08
-1.11388e-07
1.54836e-08
-2.8389e-08
-1.16793e-07
7.16315e-09
-1.50197e-08
1.88647e-09
-4.72051e-09
6.47463e-08
-1.52753e-09
6.11989e-08
-6.14969e-09
5.33385e-08
-1.3357e-08
3.91557e-08
-2.46886e-08
2.1676e-08
-3.59819e-08
6.91374e-09
-3.93304e-08
-3.5477e-09
-3.71016e-08
-1.06205e-08
-3.25906e-08
-1.52603e-08
-2.74924e-08
-1.82753e-08
-2.30229e-08
-2.03276e-08
-2.00253e-08
-2.25324e-08
-1.87007e-08
-2.66298e-08
-2.03502e-08
-3.47622e-08
-2.57689e-08
-5.10114e-08
-3.29238e-08
-7.77154e-08
-3.85488e-08
-1.00861e-07
-2.80653e-08
-1.12413e-07
-1.54836e-08
-1.17134e-07
-7.16315e-09
-1.88647e-09
6.46059e-08
-3.39231e-09
-1.15966e-09
6.07461e-08
-1.10577e-08
-4.79582e-09
5.27707e-08
-2.08958e-08
-1.04442e-08
3.90428e-08
-3.34515e-08
-1.94283e-08
2.22772e-08
-4.33746e-08
-2.91231e-08
7.79974e-09
-4.45039e-08
-3.29643e-08
-2.8135e-09
-4.06114e-08
-3.21074e-08
-1.01772e-08
-3.49864e-08
-2.8941e-08
-1.51224e-08
-2.90985e-08
-2.4905e-08
-1.84383e-08
-2.41179e-08
-2.11523e-08
-2.08597e-08
-2.08964e-08
-1.84936e-08
-2.34727e-08
-1.9724e-08
-1.70861e-08
-2.78292e-08
-2.21968e-08
-1.80998e-08
-3.60696e-08
-2.9231e-08
-2.1927e-08
-5.16938e-08
-3.96027e-08
-2.64402e-08
-7.68981e-08
-5.12118e-08
-2.89733e-08
-9.93376e-08
-4.42641e-08
-2.02935e-08
-1.11388e-07
-2.83891e-08
-1.14443e-08
-1.16793e-07
-1.50197e-08
-5.37759e-09
-4.72051e-09
-1.39951e-09
6.44671e-08
-2.69918e-09
-2.69918e-09
6.01679e-08
-8.90809e-09
-8.90809e-09
5.20371e-08
-1.68304e-08
-1.68304e-08
3.89817e-08
-2.69238e-08
-2.69238e-08
2.31478e-08
-3.54576e-08
-3.54576e-08
9.05056e-09
-3.74553e-08
-3.74553e-08
-1.76727e-09
-3.52025e-08
-3.52025e-08
-9.509e-09
-3.11155e-08
-3.11155e-08
-1.4852e-08
-2.6427e-08
-2.6427e-08
-1.85776e-08
-2.22552e-08
-2.22552e-08
-2.15319e-08
-1.94193e-08
-1.94193e-08
-2.47123e-08
-1.81338e-08
-1.81338e-08
-2.94257e-08
-1.98401e-08
-1.98401e-08
-3.78456e-08
-2.50211e-08
-2.50211e-08
-5.25773e-08
-3.22369e-08
-3.22369e-08
-7.57044e-08
-3.96482e-08
-3.96482e-08
-9.70218e-08
-3.36054e-08
-3.36054e-08
-1.0977e-07
-2.2015e-08
-2.2015e-08
-1.16298e-07
-1.17558e-08
-1.17558e-08
-3.67837e-09
-3.67837e-09
6.43254e-08
-2.09439e-09
-4.14054e-09
5.96468e-08
-7.03496e-09
-1.29363e-08
5.12219e-08
-1.35117e-08
-2.28253e-08
3.86073e-08
-2.20058e-08
-3.34082e-08
2.37633e-08
-2.94513e-08
-4.10086e-08
1.02069e-08
-3.16415e-08
-4.17028e-08
-6.82594e-10
-3.02119e-08
-3.85031e-08
-8.82894e-09
-2.71486e-08
-3.37107e-08
-1.46927e-08
-2.33988e-08
-2.84424e-08
-1.89746e-08
-1.99072e-08
-2.38586e-08
-2.2516e-08
-1.73981e-08
-2.08587e-08
-2.62471e-08
-1.60834e-08
-1.97193e-08
-3.14373e-08
-1.72579e-08
-2.21672e-08
-4.01304e-08
-2.10975e-08
-2.87107e-08
-5.41825e-08
-2.64957e-08
-3.82853e-08
-7.52855e-08
-3.16319e-08
-4.88344e-08
-9.56393e-08
-2.6052e-08
-4.39219e-08
-1.08966e-07
-1.68405e-08
-3.10835e-08
-1.1609e-07
-8.91461e-09
-1.75371e-08
-2.78142e-09
-5.69364e-09
6.43064e-08
-1.611e-09
-5.33878e-09
5.95586e-08
-5.52646e-09
-1.62867e-08
5.11041e-08
-1.08583e-08
-2.7681e-08
3.86574e-08
-1.79717e-08
-3.86116e-08
2.41472e-08
-2.43624e-08
-4.54717e-08
1.07812e-08
-2.64919e-08
-4.52172e-08
-1.53342e-10
-2.55575e-08
-4.13691e-08
-8.55656e-09
-2.32042e-08
-3.6115e-08
-1.47997e-08
-2.01746e-08
-3.04408e-08
-1.95042e-08
-1.72548e-08
-2.55507e-08
-2.34669e-08
-1.50601e-08
-2.24219e-08
-2.75671e-08
-1.38159e-08
-2.1394e-08
-3.30634e-08
-1.46476e-08
-2.44985e-08
-4.18883e-08
-1.75569e-08
-3.2132e-08
-5.57071e-08
-2.17526e-08
-4.3699e-08
-7.60646e-08
-2.53231e-08
-5.64664e-08
-9.58457e-08
-2.02443e-08
-5.20159e-08
-1.08961e-07
-1.2916e-08
-3.82343e-08
-1.16078e-07
-6.6816e-09
-2.2211e-08
-2.07339e-09
-7.3301e-09
6.43238e-08
-1.22808e-09
-6.30365e-09
5.95772e-08
-4.29071e-09
-1.89829e-08
5.10913e-08
-8.61207e-09
-3.15816e-08
3.87185e-08
-1.44644e-08
-4.28312e-08
2.43764e-08
-1.98254e-08
-4.91229e-08
1.10808e-08
-2.17374e-08
-4.81179e-08
6.95086e-11
-2.11066e-08
-4.37751e-08
-8.53448e-09
-1.92828e-08
-3.81946e-08
-1.5048e-08
-1.68458e-08
-3.22314e-08
-2.00397e-08
-1.44403e-08
-2.7121e-08
-2.42714e-08
-1.25728e-08
-2.38924e-08
-2.86043e-08
-1.14729e-08
-2.29365e-08
-3.43075e-08
-1.20791e-08
-2.66081e-08
-4.32762e-08
-1.42976e-08
-3.50946e-08
-5.70674e-08
-1.76187e-08
-4.8452e-08
-7.69776e-08
-2.00973e-08
-6.28099e-08
-9.62807e-08
-1.55699e-08
-5.84646e-08
-1.0918e-07
-9.78976e-09
-4.38187e-08
-1.16137e-07
-4.9514e-09
-2.58649e-08
-1.53136e-09
-8.61782e-09
6.43458e-08
-9.16943e-10
-7.06232e-09
5.96216e-08
-3.25025e-09
-2.11037e-08
5.11249e-08
-6.64157e-09
-3.46507e-08
3.87821e-08
-1.12909e-08
-4.61646e-08
2.44956e-08
-1.56085e-08
-5.20285e-08
1.11993e-08
-1.72096e-08
-5.04376e-08
1.09155e-10
-1.67799e-08
-4.57236e-08
-8.64356e-09
-1.53847e-08
-3.99041e-08
-1.53381e-08
-1.34733e-08
-3.37378e-08
-2.05118e-08
-1.15564e-08
-2.84709e-08
-2.49035e-08
-1.00359e-08
-2.51667e-08
-2.93752e-08
-9.12578e-09
-2.42575e-08
-3.52176e-08
-9.57528e-09
-2.83895e-08
-4.43295e-08
-1.1236e-08
-3.75235e-08
-5.82516e-08
-1.38463e-08
-5.24241e-08
-7.78258e-08
-1.55287e-08
-6.80326e-08
-9.67788e-08
-1.16651e-08
-6.34488e-08
-1.09432e-07
-7.24572e-09
-4.80971e-08
-1.16204e-07
-3.59272e-09
-2.86621e-08
-1.11078e-09
-9.60585e-09
6.43631e-08
-6.53803e-10
-7.6402e-09
5.96589e-08
-2.3423e-09
-2.27215e-08
5.1152e-08
-4.85207e-09
-3.6997e-08
3.88127e-08
-8.32449e-09
-4.87268e-08
2.45397e-08
-1.15793e-08
-5.42732e-08
1.12205e-08
-1.28161e-08
-5.22351e-08
6.03616e-11
-1.2529e-08
-4.72398e-08
-8.79601e-09
-1.15106e-08
-4.12491e-08
-1.56067e-08
-1.00921e-08
-3.49385e-08
-2.08901e-08
-8.65482e-09
-2.95611e-08
-2.53731e-08
-7.49876e-09
-2.6199e-08
-2.99277e-08
-6.8045e-09
-2.53217e-08
-3.58601e-08
-7.13105e-09
-2.98169e-08
-4.50475e-08
-8.32081e-09
-3.94558e-08
-5.92183e-08
-1.02556e-08
-5.55732e-08
-7.8645e-08
-1.13552e-08
-7.21159e-08
-9.72633e-08
-8.32294e-09
-6.72466e-08
-1.09663e-07
-5.12634e-09
-5.13019e-08
-1.16263e-07
-2.50014e-09
-3.07466e-08
-7.73558e-10
-1.03413e-08
6.43746e-08
-4.21215e-10
-8.05728e-09
5.96829e-08
-1.51995e-09
-2.38911e-08
5.11652e-08
-3.17848e-09
-3.86974e-08
3.88182e-08
-5.48774e-09
-5.05889e-08
2.4542e-08
-7.66441e-09
-5.59088e-08
1.11968e-08
-8.50226e-09
-5.35468e-08
-1.73874e-11
-8.32545e-09
-4.83511e-08
-8.94031e-09
-7.66008e-09
-4.2242e-08
-1.5822e-08
-6.71835e-09
-3.58319e-08
-2.1169e-08
-5.75912e-09
-3.03787e-08
-2.57026e-08
-4.98145e-09
-2.6975e-08
-3.03068e-08
-4.51497e-09
-2.61187e-08
-3.62975e-08
-4.73087e-09
-3.08855e-08
-4.55125e-08
-5.5034e-09
-4.09108e-08
-5.97976e-08
-6.75766e-09
-5.79784e-08
-7.91971e-08
-7.41862e-09
-7.50797e-08
-9.76042e-08
-5.3526e-09
-6.9957e-08
-1.0983e-07
-3.28062e-09
-5.35774e-08
-1.16306e-07
-1.58095e-09
-3.22223e-08
-4.899e-10
-1.08617e-08
6.43812e-08
-2.06515e-10
-8.32787e-09
5.96957e-08
-7.4832e-10
-2.46512e-08
5.11682e-08
-1.57356e-09
-3.98043e-08
3.88115e-08
-2.7268e-09
-5.18037e-08
2.4529e-08
-3.81598e-09
-5.69766e-08
1.11643e-08
-4.23466e-09
-5.44035e-08
-7.97269e-11
-4.15346e-09
-4.90811e-08
-9.04689e-09
-3.82498e-09
-4.28949e-08
-1.59694e-08
-3.35542e-09
-3.64227e-08
-2.13507e-08
-2.87526e-09
-3.09222e-08
-2.5911e-08
-2.48502e-09
-2.74919e-08
-3.05443e-08
-2.25084e-09
-2.66473e-08
-3.65757e-08
-2.35803e-09
-3.15911e-08
-4.58382e-08
-2.73758e-09
-4.18552e-08
-6.02164e-08
-3.35686e-09
-5.95539e-08
-7.95673e-08
-3.66482e-09
-7.70089e-08
-9.78255e-08
-2.61932e-09
-7.17149e-08
-1.09937e-07
-1.60115e-09
-5.50409e-08
-1.16333e-07
-7.66147e-10
-3.31666e-08
-2.37731e-10
-1.11943e-08
6.43841e-08
9.45997e-16
-8.46098e-09
5.97008e-08
2.68492e-15
-2.50254e-08
5.11666e-08
5.1962e-15
-4.035e-08
3.88015e-08
7.88972e-15
-5.24028e-08
2.45139e-08
8.05966e-15
-5.75021e-08
1.11367e-08
5.60399e-15
-5.48148e-08
-1.17094e-10
3.22716e-15
-4.94431e-08
-9.10297e-09
1.70714e-15
-4.32193e-08
-1.60433e-08
7.31029e-16
-3.67171e-08
-2.14388e-08
3.4059e-16
-3.11938e-08
-2.60119e-08
3.57408e-16
-2.77499e-08
-3.06598e-08
4.62406e-16
-2.69104e-08
-3.671e-08
4.66791e-15
-3.19407e-08
-4.59988e-08
2.69801e-14
-4.23178e-08
-6.04351e-08
9.60967e-14
-6.03358e-08
-7.97563e-08
1.14761e-13
-7.79645e-08
-9.79356e-08
6.41599e-14
-7.25816e-08
-1.09989e-07
3.18655e-14
-5.57582e-08
-1.16346e-07
1.36958e-14
-3.36276e-08
4.64347e-15
-1.13565e-08
6.43841e-08
2.06516e-10
-8.46098e-09
5.97008e-08
7.48325e-10
-2.50254e-08
5.11666e-08
1.57357e-09
-4.035e-08
3.88015e-08
2.72682e-09
-5.24028e-08
2.45139e-08
3.816e-09
-5.75021e-08
1.11367e-08
4.23468e-09
-5.48148e-08
-1.17092e-10
4.15347e-09
-4.94431e-08
-9.10297e-09
3.82498e-09
-4.32193e-08
-1.60433e-08
3.35543e-09
-3.67171e-08
-2.14388e-08
2.87526e-09
-3.11938e-08
-2.60119e-08
2.48502e-09
-2.77499e-08
-3.06598e-08
2.25084e-09
-2.69104e-08
-3.671e-08
2.35804e-09
-3.19407e-08
-4.59989e-08
2.73763e-09
-4.23178e-08
-6.04352e-08
3.35699e-09
-6.03358e-08
-7.97563e-08
3.66496e-09
-7.79646e-08
-9.79356e-08
2.61941e-09
-7.25816e-08
-1.09989e-07
1.6012e-09
-5.57582e-08
-1.16346e-07
7.66168e-10
-3.36276e-08
2.37739e-10
-1.13565e-08
6.43812e-08
4.21216e-10
-8.32787e-09
5.96957e-08
1.51996e-09
-2.46512e-08
5.11682e-08
3.17849e-09
-3.98043e-08
3.88115e-08
5.48775e-09
-5.18037e-08
2.4529e-08
7.66443e-09
-5.69767e-08
1.11644e-08
8.50227e-09
-5.44035e-08
-7.97225e-11
8.32546e-09
-4.90811e-08
-9.04689e-09
7.66008e-09
-4.28949e-08
-1.59694e-08
6.71835e-09
-3.64227e-08
-2.13507e-08
5.75912e-09
-3.09222e-08
-2.5911e-08
4.98145e-09
-2.74919e-08
-3.05443e-08
4.51498e-09
-2.66473e-08
-3.65757e-08
4.73088e-09
-3.15911e-08
-4.58383e-08
5.50342e-09
-4.18553e-08
-6.02165e-08
6.75766e-09
-5.9554e-08
-7.95674e-08
7.41862e-09
-7.70089e-08
-9.78256e-08
5.35265e-09
-7.17149e-08
-1.09937e-07
3.28064e-09
-5.50409e-08
-1.16333e-07
1.58096e-09
-3.31666e-08
4.89906e-10
-1.11943e-08
6.43746e-08
6.53804e-10
-8.05728e-09
5.96829e-08
2.3423e-09
-2.38911e-08
5.11652e-08
4.85207e-09
-3.86974e-08
3.88182e-08
8.3245e-09
-5.05889e-08
2.4542e-08
1.15793e-08
-5.59088e-08
1.11969e-08
1.28161e-08
-5.35468e-08
-1.73811e-11
1.2529e-08
-4.83511e-08
-8.94031e-09
1.15106e-08
-4.2242e-08
-1.5822e-08
1.00921e-08
-3.58319e-08
-2.1169e-08
8.65482e-09
-3.03787e-08
-2.57026e-08
7.49876e-09
-2.69751e-08
-3.03069e-08
6.8045e-09
-2.61187e-08
-3.62975e-08
7.13106e-09
-3.08856e-08
-4.55126e-08
8.32081e-09
-4.09108e-08
-5.97977e-08
1.02556e-08
-5.79785e-08
-7.91972e-08
1.13552e-08
-7.50798e-08
-9.76042e-08
8.32297e-09
-6.9957e-08
-1.0983e-07
5.12636e-09
-5.35774e-08
-1.16306e-07
2.50015e-09
-3.22222e-08
7.73563e-10
-1.08617e-08
6.43631e-08
9.16944e-10
-7.64019e-09
5.96589e-08
3.25025e-09
-2.27215e-08
5.11521e-08
6.64158e-09
-3.6997e-08
3.88128e-08
1.12909e-08
-4.87268e-08
2.45397e-08
1.56085e-08
-5.42732e-08
1.12205e-08
1.72096e-08
-5.22351e-08
6.03718e-11
1.67799e-08
-4.72398e-08
-8.796e-09
1.53847e-08
-4.12491e-08
-1.56067e-08
1.34734e-08
-3.49385e-08
-2.08901e-08
1.15564e-08
-2.95611e-08
-2.53731e-08
1.00359e-08
-2.6199e-08
-2.99277e-08
9.12578e-09
-2.53217e-08
-3.58601e-08
9.57527e-09
-2.98169e-08
-4.50475e-08
1.1236e-08
-3.94558e-08
-5.92184e-08
1.38463e-08
-5.55732e-08
-7.8645e-08
1.55287e-08
-7.2116e-08
-9.72633e-08
1.16651e-08
-6.72466e-08
-1.09663e-07
7.24573e-09
-5.13019e-08
-1.16263e-07
3.59273e-09
-3.07466e-08
1.11078e-09
-1.03413e-08
6.43458e-08
1.22809e-09
-7.06232e-09
5.96216e-08
4.29071e-09
-2.11037e-08
5.1125e-08
8.61208e-09
-3.46507e-08
3.87821e-08
1.44644e-08
-4.61645e-08
2.44957e-08
1.98254e-08
-5.20285e-08
1.11993e-08
2.17374e-08
-5.04377e-08
1.09166e-10
2.11066e-08
-4.57237e-08
-8.64355e-09
1.92828e-08
-3.99041e-08
-1.53381e-08
1.68458e-08
-3.37378e-08
-2.05118e-08
1.44403e-08
-2.84709e-08
-2.49036e-08
1.25728e-08
-2.51667e-08
-2.93752e-08
1.14729e-08
-2.42575e-08
-3.52177e-08
1.20791e-08
-2.83896e-08
-4.43296e-08
1.42976e-08
-3.75235e-08
-5.82517e-08
1.76188e-08
-5.24241e-08
-7.78259e-08
2.00974e-08
-6.80328e-08
-9.67789e-08
1.55699e-08
-6.34488e-08
-1.09432e-07
9.78976e-09
-4.80971e-08
-1.16204e-07
4.9514e-09
-2.86621e-08
1.53136e-09
-9.60584e-09
6.43238e-08
1.611e-09
-6.30365e-09
5.95773e-08
5.52646e-09
-1.89829e-08
5.10913e-08
1.08583e-08
-3.15816e-08
3.87186e-08
1.79717e-08
-4.28312e-08
2.43764e-08
2.43624e-08
-4.91229e-08
1.10808e-08
2.64919e-08
-4.81179e-08
6.95223e-11
2.55575e-08
-4.37751e-08
-8.53448e-09
2.32042e-08
-3.81946e-08
-1.5048e-08
2.01746e-08
-3.22314e-08
-2.00397e-08
1.72548e-08
-2.7121e-08
-2.42714e-08
1.50601e-08
-2.38925e-08
-2.86043e-08
1.3816e-08
-2.29365e-08
-3.43076e-08
1.46476e-08
-2.66081e-08
-4.32763e-08
1.75569e-08
-3.50947e-08
-5.70675e-08
2.17526e-08
-4.84521e-08
-7.69776e-08
2.53231e-08
-6.28099e-08
-9.62807e-08
2.02442e-08
-5.84646e-08
-1.0918e-07
1.2916e-08
-4.38186e-08
-1.16137e-07
6.68159e-09
-2.58649e-08
2.07339e-09
-8.61781e-09
6.43064e-08
2.09439e-09
-5.33878e-09
5.95586e-08
7.03496e-09
-1.62867e-08
5.11042e-08
1.35117e-08
-2.7681e-08
3.86574e-08
2.20058e-08
-3.86116e-08
2.41472e-08
2.94513e-08
-4.54717e-08
1.07812e-08
3.16415e-08
-4.52173e-08
-1.53327e-10
3.02119e-08
-4.13691e-08
-8.55655e-09
2.71486e-08
-3.6115e-08
-1.47997e-08
2.33988e-08
-3.04408e-08
-1.95042e-08
1.99072e-08
-2.55507e-08
-2.34669e-08
1.73981e-08
-2.24219e-08
-2.75671e-08
1.60834e-08
-2.1394e-08
-3.30634e-08
1.72579e-08
-2.44985e-08
-4.18883e-08
2.10976e-08
-3.21321e-08
-5.57071e-08
2.64957e-08
-4.3699e-08
-7.60646e-08
3.16319e-08
-5.64664e-08
-9.58457e-08
2.6052e-08
-5.20158e-08
-1.08961e-07
1.68405e-08
-3.82343e-08
-1.16078e-07
8.9146e-09
-2.22109e-08
2.78142e-09
-7.33009e-09
6.43254e-08
2.69917e-09
-4.14054e-09
5.96468e-08
8.90808e-09
-1.29363e-08
5.12219e-08
1.68304e-08
-2.28253e-08
3.86073e-08
2.69238e-08
-3.34082e-08
2.37633e-08
3.54576e-08
-4.10086e-08
1.02069e-08
3.74553e-08
-4.17028e-08
-6.82577e-10
3.52025e-08
-3.85031e-08
-8.82893e-09
3.11156e-08
-3.37107e-08
-1.46927e-08
2.6427e-08
-2.84424e-08
-1.89746e-08
2.22552e-08
-2.38586e-08
-2.25159e-08
1.94193e-08
-2.08587e-08
-2.62471e-08
1.81338e-08
-1.97193e-08
-3.14373e-08
1.98401e-08
-2.21672e-08
-4.01304e-08
2.50211e-08
-2.87107e-08
-5.41825e-08
3.22369e-08
-3.82853e-08
-7.52855e-08
3.96482e-08
-4.88343e-08
-9.56393e-08
3.36054e-08
-4.39219e-08
-1.08966e-07
2.2015e-08
-3.10835e-08
-1.1609e-07
1.17558e-08
-1.75371e-08
3.67837e-09
-5.69363e-09
6.44671e-08
3.39231e-09
-2.69917e-09
6.0168e-08
1.10577e-08
-8.90808e-09
5.20371e-08
2.08958e-08
-1.68304e-08
3.89817e-08
3.34515e-08
-2.69238e-08
2.31478e-08
4.33746e-08
-3.54576e-08
9.05059e-09
4.45039e-08
-3.74553e-08
-1.76725e-09
4.06114e-08
-3.52025e-08
-9.50899e-09
3.49864e-08
-3.11156e-08
-1.4852e-08
2.90986e-08
-2.6427e-08
-1.85776e-08
2.41179e-08
-2.22552e-08
-2.15319e-08
2.08964e-08
-1.94193e-08
-2.47123e-08
1.9724e-08
-1.81338e-08
-2.94256e-08
2.21968e-08
-1.98401e-08
-3.78456e-08
2.92311e-08
-2.50211e-08
-5.25773e-08
3.96028e-08
-3.22369e-08
-7.57045e-08
5.12118e-08
-3.96482e-08
-9.70219e-08
4.42641e-08
-3.36054e-08
-1.0977e-07
2.8389e-08
-2.2015e-08
-1.16298e-07
1.50197e-08
-1.17557e-08
4.72051e-09
-3.67836e-09
6.46059e-08
-1.15966e-09
6.07461e-08
-4.79581e-09
5.27708e-08
-1.04442e-08
3.90428e-08
-1.94283e-08
2.22773e-08
-2.91231e-08
7.79977e-09
-3.29643e-08
-2.81348e-09
-3.21074e-08
-1.01772e-08
-2.8941e-08
-1.51224e-08
-2.4905e-08
-1.84383e-08
-2.11523e-08
-2.08597e-08
-1.84936e-08
-2.34727e-08
-1.70861e-08
-2.78292e-08
-1.80998e-08
-3.60696e-08
-2.1927e-08
-5.16938e-08
-2.64402e-08
-7.68982e-08
-2.89733e-08
-9.93377e-08
-2.02934e-08
-1.11388e-07
-1.14443e-08
-1.16793e-07
-5.37758e-09
-1.39951e-09
6.4476e-08
-5.06371e-09