/*--------------------------------*- C++ -*----------------------------------*\
  =========                 |
  \\      /  F ield         | OpenFOAM: The Open Source CFD Toolbox
   \\    /   O peration     | Website:  https://openfoam.org
    \\  /    A nd           | Version:  7
     \\/     M anipulation  |
\*---------------------------------------------------------------------------*/
FoamFile
{
    version     2.0;
    format      ascii;
    class       volScalarField;
    location    "0.5";
    object      Qdot;
}
// * * * * * * * * * * * * * * * * * * * * * * * * * * * * * * * * * * * * * //

dimensions      [1 -1 -3 0 0 0 0];

internalField   nonuniform List<scalar> 
8000
(
4.76228e-07
0
4.76225e-07
4.77733e-07
1.01056e-05
1.3566
2568.19
129297
818462
3.3309e+06
1.12066e+07
3.95195e+07
4.34134e+07
8.56687e+06
1.20141e+06
5.06942
2.49373e-06
4.94167e-09
2.16263e-10
8.56739e-12
4.76228e-07
4.76225e-07
4.76225e-07
1.22669e-09
9.0421e-06
1.18262
2478.32
134382
859686
3.48612e+06
1.17467e+07
4.13392e+07
4.21273e+07
8.22372e+06
1.12852e+06
3.27355
2.15171e-06
4.84948e-09
2.09891e-10
9.89327e-12
4.76228e-07
4.76225e-07
4.76225e-07
4.77733e-07
8.00302e-06
1.04927
2431.45
142364
919695
3.7383e+06
1.25518e+07
4.39839e+07
4.02094e+07
7.74107e+06
1.0239e+06
1.82904
1.67132e-06
4.68959e-09
2.09607e-10
9.01367e-12
0
4.71159e-11
0
-2.05697e-16
7.39051e-06
0.990825
2478.71
152819
991821
4.00908e+06
1.34015e+07
4.66954e+07
3.81755e+07
7.268e+06
888471
0.812393
1.19223e-06
4.45435e-09
2.0965e-10
9.04664e-12
2.39587e-12
0
-4.47661e-15
2.7344e-09
7.14988e-06
0.980365
2579.29
163911
1.05955e+06
4.25824e+06
1.41582e+07
4.91021e+07
3.63015e+07
6.86248e+06
709185
0.378343
8.81981e-07
4.30705e-09
2.11038e-10
8.87191e-12
0
1.60701e-19
4.76225e-07
4.77733e-07
7.11103e-06
0.997989
2717.52
175225
1.11899e+06
4.46985e+06
1.47859e+07
5.10753e+07
3.47031e+07
6.52726e+06
583224
0.194108
6.81802e-07
4.07059e-09
2.02665e-10
8.70472e-12
-6.99671e-17
0
4.76567e-07
-3.60391e-14
7.5034e-06
1.03326
2877.63
184957
1.16806e+06
4.64151e+06
1.52919e+07
5.26006e+07
3.341e+07
6.26684e+06
465358
0.118219
5.64224e-07
3.91717e-09
2.00752e-10
8.2398e-12
0
-5.59576e-16
4.76414e-07
1.22672e-09
7.49988e-06
1.07542
3016.43
192635
1.20506e+06
4.76796e+06
1.56569e+07
5.37018e+07
3.24451e+07
6.0741e+06
379767
0.0789002
4.81962e-07
3.72383e-09
1.91951e-10
8.26109e-12
2.94475e-12
4.76225e-07
4.76379e-07
-2.15982e-16
7.70167e-06
1.10565
3117.92
197909
1.2297e+06
4.8509e+06
1.58944e+07
5.44151e+07
3.18082e+07
5.94763e+06
325821
0.0600268
4.34125e-07
3.55539e-09
1.85681e-10
7.9446e-12
4.76225e-07
4.76225e-07
1.88464e-10
1.50767e-09
7.80123e-06
1.10316
3167.35
200522
1.24175e+06
4.89132e+06
1.60098e+07
5.47612e+07
3.14965e+07
5.88576e+06
299157
0.0524825
4.12203e-07
3.4755e-09
1.85901e-10
7.86189e-12
2.94475e-12
-5.59737e-16
1.5334e-10
1.50771e-09
7.80011e-06
1.10316
3167.34
200522
1.24175e+06
4.89133e+06
1.60098e+07
5.47612e+07
3.14966e+07
5.88584e+06
299139
0.0524768
4.12199e-07
3.4755e-09
1.85894e-10
7.95347e-12
4.76231e-07
4.76225e-07
1.88459e-10
1.50771e-09
7.93488e-06
1.10564
3117.9
197908
1.2297e+06
4.85091e+06
1.58944e+07
5.44151e+07
3.18082e+07
5.94775e+06
325784
0.0600157
4.33815e-07
3.60261e-09
1.85681e-10
7.9446e-12
4.76225e-07
-5.59576e-16
0
4.76225e-07
7.49988e-06
1.0754
3016.4
192633
1.20506e+06
4.76795e+06
1.56569e+07
5.37018e+07
3.24451e+07
6.07415e+06
379747
0.078894
4.81894e-07
3.6766e-09
1.97292e-10
8.26109e-12
4.76225e-07
4.76225e-07
-4.47661e-15
4.77733e-07
7.27019e-06
1.03324
2877.6
184955
1.16806e+06
4.6415e+06
1.52919e+07
5.26006e+07
3.34099e+07
6.26683e+06
465351
0.118214
5.64226e-07
3.83183e-09
1.97814e-10
8.2398e-12
4.76225e-07
4.76272e-07
4.76414e-07
1.22672e-09
7.10613e-06
0.997967
2717.49
175224
1.11898e+06
4.46984e+06
1.47859e+07
5.10754e+07
3.4703e+07
6.52724e+06
583207
0.194095
6.81808e-07
3.98513e-09
2.0561e-10
8.55497e-12
0
4.76225e-07
4.76225e-07
-3.60391e-14
7.15478e-06
0.980339
2579.25
163910
1.05955e+06
4.25822e+06
1.41581e+07
4.91021e+07
3.63014e+07
6.86245e+06
709166
0.378331
8.81982e-07
4.30571e-09
2.05142e-10
9.05551e-12
0
4.76225e-07
-4.47789e-15
4.76225e-07
7.40144e-06
0.990794
2478.66
152818
991818
4.00908e+06
1.34015e+07
4.66954e+07
3.81754e+07
7.26796e+06
888457
0.812364
1.19223e-06
4.50158e-09
2.10747e-10
9.04664e-12
5.34069e-12
1.60701e-19
4.76532e-07
4.7896e-07
8.00905e-06
1.04923
2431.41
142363
919694
3.7383e+06
1.25519e+07
4.3984e+07
4.02093e+07
7.74102e+06
1.02389e+06
1.82899
1.67132e-06
4.76626e-09
2.09607e-10
8.86393e-12
4.76228e-07
4.76225e-07
-4.47789e-15
4.7896e-07
9.28021e-06
1.18258
2478.28
134382
859685
3.48612e+06
1.17467e+07
4.13393e+07
4.21271e+07
8.22366e+06
1.12851e+06
3.27336
2.15248e-06
4.93443e-09
2.09891e-10
8.54477e-12
2.39587e-12
0
1.28561e-18
2.7344e-09
1.01056e-05
1.35655
2568.14
129296
818461
3.3309e+06
1.12066e+07
3.95196e+07
4.34132e+07
8.5668e+06
1.20139e+06
5.06894
2.4945e-06
5.01845e-09
2.05582e-10
8.56739e-12
-6.99671e-17
4.76225e-07
1.28561e-18
2.7344e-09
9.28021e-06
1.18262
2478.32
134382
859686
3.48612e+06
1.17467e+07
4.13392e+07
4.21273e+07
8.22372e+06
1.12852e+06
3.27355
2.15171e-06
4.84936e-09
2.10989e-10
-6.25516e-13
4.76228e-07
-1.11947e-15
0
4.76225e-07
7.67979e-06
0.994384
2347.1
138912
899873
3.65632e+06
1.23541e+07
4.33906e+07
4.07098e+07
7.85263e+06
1.05611e+06
2.21062
1.84067e-06
4.93701e-09
2.20897e-10
9.03378e-12
2.94468e-12
0
4.76225e-07
4.7896e-07
7.2761e-06
0.8609
2268.45
146972
964901
3.93142e+06
1.32447e+07
4.63112e+07
3.86491e+07
7.35504e+06
912730
0.988655
1.37298e-06
4.85674e-09
2.25511e-10
1.05205e-11
4.76225e-07
0
3.418e-10
1.22672e-09
6.66849e-06
0.798348
2290.85
157573
1.04203e+06
4.22337e+06
1.41677e+07
4.92387e+07
3.65056e+07
6.87904e+06
714020
0.427737
1.00455e-06
4.53935e-09
2.05936e-10
8.84618e-12
5.34062e-12
4.76225e-07
1.5334e-10
2.73443e-09
6.16297e-06
0.780029
2368.46
168940
1.1142e+06
4.49147e+06
1.49908e+07
5.18012e+07
3.45542e+07
6.46395e+06
560320
0.201142
7.51895e-07
4.21573e-09
2.07353e-10
9.04797e-12
-6.99671e-17
4.76225e-07
4.76225e-07
-3.60186e-14
6.04265e-06
0.7867
2484.3
180620
1.17716e+06
4.71675e+06
1.56601e+07
5.38818e+07
3.29094e+07
6.12716e+06
412868
0.108791
5.8041e-07
3.90752e-09
2.03271e-10
8.55807e-12
5.34069e-12
4.76225e-07
1.5334e-10
-3.60186e-14
6.07546e-06
0.807976
2622.91
190649
1.22891e+06
4.89853e+06
1.61981e+07
5.54817e+07
3.15917e+07
5.85894e+06
308330
0.0592254
4.51891e-07
3.67796e-09
1.95929e-10
8.26154e-12
5.34069e-12
0
4.76567e-07
4.77733e-07
6.21765e-06
0.836987
2744.47
198578
1.26798e+06
5.03281e+06
1.65883e+07
5.66399e+07
3.06119e+07
5.65924e+06
246118
0.0387716
3.79699e-07
3.40473e-09
1.80752e-10
7.62854e-12
5.34069e-12
-5.59576e-16
0
4.77452e-07
6.35381e-06
0.864482
2836.32
204034
1.294e+06
5.12094e+06
1.68424e+07
5.73934e+07
2.99654e+07
5.5277e+06
204383
0.029261
3.37753e-07
3.28715e-09
1.74439e-10
8.83454e-12
4.76228e-07
0
1.28561e-18
4.77733e-07
6.47525e-06
0.90124
2889.43
206757
1.30671e+06
5.16386e+06
1.69662e+07
5.77612e+07
2.96487e+07
5.46268e+06
185503
0.0253589
3.19004e-07
3.20919e-09
1.72376e-10
8.68095e-12
0
4.76225e-07
4.76414e-07
-2.15982e-16
6.71337e-06
0.901238
2889.43
206756
1.30671e+06
5.16387e+06
1.69663e+07
5.77614e+07
2.96487e+07
5.46267e+06
185497
0.0253592
3.19005e-07
3.20931e-09
1.71028e-10
7.33289e-12
4.76225e-07
4.76225e-07
0
4.77733e-07
6.35494e-06
0.864476
2836.3
204033
1.29399e+06
5.12095e+06
1.68425e+07
5.73937e+07
2.99655e+07
5.52767e+06
204370
0.0292616
3.37759e-07
3.28715e-09
1.76043e-10
7.48693e-12
0
4.76225e-07
4.76225e-07
4.77733e-07
6.20672e-06
0.836977
2744.45
198577
1.26798e+06
5.0328e+06
1.65883e+07
5.664e+07
3.06119e+07
5.65922e+06
246111
0.0387711
3.79704e-07
3.44307e-09
1.80752e-10
-1.54263e-12
-6.99671e-17
-5.59737e-16
1.53336e-10
4.76225e-07
6.07546e-06
0.807963
2622.88
190648
1.22891e+06
4.89852e+06
1.61981e+07
5.54817e+07
3.15917e+07
5.85892e+06
308327
0.0592224
4.52265e-07
3.72496e-09
1.90589e-10
8.26154e-12
4.76231e-07
4.76225e-07
4.76567e-07
2.7344e-09
6.04265e-06
0.786683
2484.27
180619
1.17715e+06
4.71674e+06
1.56601e+07
5.38819e+07
3.29093e+07
6.12714e+06
412849
0.108778
5.80788e-07
3.90752e-09
2.05667e-10
8.55763e-12
4.76225e-07
4.76225e-07
1.88459e-10
2.73443e-09
6.15694e-06
0.780009
2368.42
168939
1.11419e+06
4.49146e+06
1.49908e+07
5.18013e+07
3.45541e+07
6.46392e+06
560291
0.201124
7.51893e-07
4.17643e-09
2.10298e-10
1.03965e-11
4.76231e-07
-1.11947e-15
3.41804e-10
-2.05697e-16
6.66849e-06
0.798325
2290.82
157572
1.04203e+06
4.22336e+06
1.41678e+07
4.92387e+07
3.65055e+07
6.87899e+06
714007
0.427724
1.00456e-06
4.53947e-09
2.05936e-10
8.84618e-12
2.94475e-12
-1.11947e-15
-4.47661e-15
-2.05697e-16
7.03798e-06
0.860873
2268.41
146972
964899
3.93142e+06
1.32447e+07
4.63112e+07
3.86489e+07
7.35499e+06
912725
0.988651
1.3736e-06
4.85663e-09
2.19629e-10
9.17244e-12
2.39594e-12
0
-4.47789e-15
1.22669e-09
7.67489e-06
0.994351
2347.06
138912
899873
3.65633e+06
1.23541e+07
4.33907e+07
4.07096e+07
7.85256e+06
1.0561e+06
2.21052
1.84144e-06
4.93712e-09
2.20897e-10
8.84929e-12
0
1.60701e-19
4.76225e-07
-2.15982e-16
9.0421e-06
1.18258
2478.28
134382
859685
3.48612e+06
1.17467e+07
4.13393e+07
4.2127e+07
8.22364e+06
1.12851e+06
3.27331
2.15172e-06
4.9436e-09
2.15781e-10
8.54521e-12
4.76231e-07
1.60701e-19
3.06681e-10
1.50767e-09
8.01396e-06
1.04927
2431.45
142364
919695
3.7383e+06
1.25518e+07
4.39839e+07
4.02094e+07
7.74107e+06
1.0239e+06
1.82904
1.67132e-06
4.68959e-09
2.04808e-10
9.04797e-12
0
4.76225e-07
1.28561e-18
1.22672e-09
7.03798e-06
0.8609
2268.45
146972
964901
3.93142e+06
1.32447e+07
4.63112e+07
3.86491e+07
7.35504e+06
912730
0.988655
1.37299e-06
4.84746e-09
2.20719e-10
9.50579e-12
0
4.76225e-07
4.76225e-07
-1.95412e-16
5.95515e-06
0.726864
2165.67
155334
1.03643e+06
4.2396e+06
1.42374e+07
4.95226e+07
3.64407e+07
6.85157e+06
707373
0.453496
1.09008e-06
4.64974e-09
2.25376e-10
9.49647e-12
4.76228e-07
4.76225e-07
4.76225e-07
2.73443e-09
5.34264e-06
0.666367
2172.86
166405
1.12061e+06
4.56133e+06
1.52447e+07
5.26634e+07
3.41956e+07
6.36859e+06
528835
0.19295
7.71893e-07
4.29958e-09
2.1522e-10
9.03245e-12
2.94475e-12
4.76225e-07
4.76414e-07
1.22669e-09
5.10201e-06
0.648636
2239.18
178344
1.19885e+06
4.85483e+06
1.61358e+07
5.53672e+07
3.21823e+07
5.95291e+06
357761
0.094166
5.58572e-07
3.90627e-09
2.03964e-10
8.55319e-12
0
0
4.76379e-07
-1.85127e-16
5.13482e-06
0.655211
2344.38
190686
1.26683e+06
5.10058e+06
1.68614e+07
5.75426e+07
3.05054e+07
5.6084e+06
241793
0.0428507
4.11565e-07
3.59231e-09
1.90901e-10
8.12332e-12
0
4.76225e-07
4.76379e-07
1.22669e-09
5.42762e-06
0.6727
2472.79
201219
1.32206e+06
5.29466e+06
1.74226e+07
5.92114e+07
2.91837e+07
5.33797e+06
161811
0.0238695
3.24005e-07
3.29056e-09
1.66971e-10
7.58206e-12
4.76228e-07
0
1.88459e-10
2.73443e-09
5.30982e-06
0.695879
2584.97
209545
1.36382e+06
5.43932e+06
1.7841e+07
6.04229e+07
2.82056e+07
5.13824e+06
106716
0.0147178
2.68385e-07
2.97317e-09
1.63573e-10
7.10724e-12
4.76228e-07
-5.59737e-16
3.418e-10
4.76225e-07
5.43014e-06
0.71502
2668.21
215269
1.39158e+06
5.53392e+06
1.81108e+07
6.1204e+07
2.75635e+07
5.00416e+06
83482.1
0.011036
2.3834e-07
2.81714e-09
1.56511e-10
6.72629e-12
2.94468e-12
4.76272e-07
1.88459e-10
2.7344e-09
5.73388e-06
0.726191
2711.6
218103
1.4051e+06
5.57977e+06
1.82411e+07
6.15807e+07
2.72511e+07
4.93835e+06
74354.3
0.00966257
2.25842e-07
2.71933e-09
1.51482e-10
6.5727e-12
-6.99671e-17
1.60701e-19
1.28561e-18
1.22672e-09
5.72785e-06
0.726189
2711.59
218102
1.40509e+06
5.57976e+06
1.82411e+07
6.15807e+07
2.72511e+07
4.93833e+06
74354.3
0.00966265
2.2584e-07
2.71933e-09
1.42319e-10
7.92098e-12
5.34069e-12
3.83345e-11
3.418e-10
1.50771e-09
5.43014e-06
0.715016
2668.2
215268
1.39157e+06
5.53391e+06
1.81108e+07
6.12039e+07
2.75634e+07
5.00412e+06
83482.5
0.0110361
2.37959e-07
2.81714e-09
1.57852e-10
6.72629e-12
2.39594e-12
4.76225e-07
1.5334e-10
1.22672e-09
5.30982e-06
0.695872
2584.95
209543
1.36381e+06
5.4393e+06
1.7841e+07
6.04228e+07
2.82055e+07
5.13821e+06
106716
0.0147175
2.68382e-07
2.99222e-09
1.64122e-10
-2.13858e-12
5.34069e-12
0
3.418e-10
1.22672e-09
5.18951e-06
0.67269
2472.77
201218
1.32205e+06
5.29464e+06
1.74226e+07
5.92114e+07
2.91836e+07
5.33795e+06
161811
0.0238675
3.23999e-07
3.20522e-09
1.76149e-10
7.58206e-12
0
4.76225e-07
-4.47789e-15
-1.95412e-16
5.37293e-06
0.655199
2344.35
190685
1.26683e+06
5.10057e+06
1.68614e+07
5.75427e+07
3.05053e+07
5.60838e+06
241782
0.0428426
4.12251e-07
3.60283e-09
1.8556e-10
8.12332e-12
2.94468e-12
-5.59737e-16
1.28561e-18
4.77733e-07
5.10201e-06
0.648621
2239.15
178343
1.19885e+06
4.85484e+06
1.61359e+07
5.53674e+07
3.21822e+07
5.95288e+06
357735
0.0941647
5.58955e-07
3.90627e-09
2.0022e-10
8.55364e-12
2.39594e-12
4.76225e-07
4.76379e-07
4.76225e-07
5.34867e-06
0.66635
2172.83
166404
1.12061e+06
4.56132e+06
1.52448e+07
5.26634e+07
3.41954e+07
6.36854e+06
528822
0.192945
7.71892e-07
4.29946e-09
2.12831e-10
9.03245e-12
2.00876e-20
1.60701e-19
4.76225e-07
2.73443e-09
6.19326e-06
0.726843
2165.64
155334
1.03643e+06
4.23959e+06
1.42374e+07
4.95226e+07
3.64405e+07
6.85151e+06
707369
0.453505
1.08947e-06
4.69686e-09
2.25369e-10
1.066e-11
4.76225e-07
0
1.28561e-18
-2.05697e-16
7.03798e-06
0.860873
2268.42
146972
964900
3.93142e+06
1.32447e+07
4.63112e+07
3.86489e+07
7.35497e+06
912722
0.988659
1.37299e-06
4.85663e-09
2.19629e-10
9.17199e-12
0
4.76225e-07
4.76225e-07
-2.05697e-16
8.01396e-06
1.04923
2431.41
142363
919695
3.7383e+06
1.25519e+07
4.3984e+07
4.02091e+07
7.74097e+06
1.02388e+06
1.82895
1.67133e-06
4.76615e-09
2.1549e-10
9.19727e-12
0
4.76264e-07
1.28561e-18
4.7896e-07
7.40144e-06
0.990825
2478.71
152819
991821
4.00908e+06
1.34015e+07
4.66954e+07
3.81755e+07
7.268e+06
888471
0.812393
1.19222e-06
4.50158e-09
2.15539e-10
8.86304e-12
4.76225e-07
4.76272e-07
1.28561e-18
4.7896e-07
6.42547e-06
0.798348
2290.85
157573
1.04203e+06
4.22337e+06
1.41677e+07
4.92387e+07
3.65056e+07
6.87904e+06
714020
0.427737
1.0038e-06
4.53935e-09
2.15107e-10
8.84574e-12
0
0
1.88459e-10
-1.85127e-16
5.59169e-06
0.666367
2172.86
166405
1.12061e+06
4.56133e+06
1.52447e+07
5.26634e+07
3.41956e+07
6.36859e+06
528835
0.19295
7.71893e-07
4.29946e-09
2.12824e-10
9.03245e-12
2.39594e-12
-5.59576e-16
4.76414e-07
1.50771e-09
4.752e-06
0.606889
2173.44
178202
1.21246e+06
4.90883e+06
1.63188e+07
5.59464e+07
3.18924e+07
5.88678e+06
334370
0.0863174
5.42562e-07
3.94812e-09
2.05674e-10
8.55719e-12
4.76228e-07
4.76225e-07
4.76379e-07
-1.85127e-16
4.74345e-06
0.588063
2235.76
190912
1.29709e+06
5.22324e+06
1.72617e+07
5.87418e+07
2.9855e+07
5.46544e+06
198804
0.0340823
3.81311e-07
3.52557e-09
1.87263e-10
7.861e-12
2.94475e-12
0
4.76379e-07
1.50767e-09
4.44575e-06
0.591557
2337.88
204071
1.37025e+06
5.48515e+06
1.80273e+07
6.09788e+07
2.81758e+07
5.11886e+06
110919
0.0160937
2.82077e-07
3.09396e-09
1.7149e-10
7.25817e-12
-6.99671e-17
-5.59737e-16
3.41804e-10
1.22672e-09
4.50043e-06
0.606253
2464.3
215221
1.42917e+06
5.68988e+06
1.86136e+07
6.26776e+07
2.68686e+07
4.84448e+06
66569.3
0.00907914
2.23932e-07
2.69566e-09
1.56766e-10
6.5696e-12
0
4.76225e-07
1.88459e-10
1.22672e-09
4.81511e-06
0.626358
2574.29
223976
1.47323e+06
5.83975e+06
1.90374e+07
6.38934e+07
2.59126e+07
4.64195e+06
45766.6
0.00611665
1.90162e-07
2.50224e-09
1.41709e-10
6.27616e-12
4.76225e-07
1.60701e-19
-4.47661e-15
-1.85127e-16
4.91958e-06
0.642652
2655.46
229980
1.50248e+06
5.93818e+06
1.93157e+07
6.46722e+07
2.5287e+07
4.50908e+06
36066.3
0.00477738
1.70742e-07
2.33483e-09
1.38191e-10
5.89366e-12
5.34069e-12
0
1.5334e-10
4.76225e-07
4.73013e-06
0.651368
2696.89
232940
1.51669e+06
5.98565e+06
1.94488e+07
6.50455e+07
2.49837e+07
4.44488e+06
32226
0.00425957
1.62921e-07
2.30853e-09
1.30478e-10
5.64672e-12
0
0
1.28561e-18
1.50771e-09
4.71919e-06
0.651367
2696.88
232940
1.51669e+06
5.98565e+06
1.94488e+07
6.50455e+07
2.49837e+07
4.44487e+06
32226.1
0.00425957
1.62992e-07
2.30718e-09
1.3195e-10
5.64694e-12
4.76225e-07
4.76225e-07
4.76225e-07
-1.95412e-16
4.68034e-06
0.642648
2655.45
229980
1.50248e+06
5.93817e+06
1.93157e+07
6.46722e+07
2.52869e+07
4.50906e+06
36066.3
0.00477735
1.71421e-07
2.36322e-09
1.37e-10
5.80142e-12
0
-5.59576e-16
3.418e-10
4.77452e-07
4.81511e-06
0.626351
2574.28
223975
1.47322e+06
5.83973e+06
1.90374e+07
6.38933e+07
2.59126e+07
4.64193e+06
45766.3
0.00611654
1.9016e-07
2.50224e-09
1.41709e-10
6.20129e-12
-6.99671e-17
4.76225e-07
3.41804e-10
1.22672e-09
4.4895e-06
0.606245
2464.28
215220
1.42916e+06
5.68986e+06
1.86135e+07
6.26776e+07
2.68685e+07
4.84446e+06
66568.6
0.00907837
2.23255e-07
2.71922e-09
1.5437e-10
6.49472e-12
4.76228e-07
0
0
-3.5998e-14
4.44575e-06
0.591547
2337.85
204070
1.37025e+06
5.48515e+06
1.80273e+07
6.09789e+07
2.81757e+07
5.11883e+06
110917
0.0160913
2.82078e-07
3.05124e-09
1.66149e-10
7.18285e-12
0
4.76225e-07
1.53336e-10
2.7344e-09
4.51137e-06
0.588051
2235.74
190911
1.29709e+06
5.22326e+06
1.72618e+07
5.87421e+07
2.98548e+07
5.4654e+06
198793
0.0340839
3.81237e-07
3.52579e-09
1.85915e-10
7.95302e-12
2.00876e-20
4.76272e-07
1.53336e-10
1.50771e-09
4.74709e-06
0.606874
2173.41
178201
1.21246e+06
4.90883e+06
1.63188e+07
5.59464e+07
3.18921e+07
5.88673e+06
334355
0.086314
5.42943e-07
3.94812e-09
1.93559e-10
8.74168e-12
4.76225e-07
4.71159e-11
3.418e-10
4.76225e-07
5.34754e-06
0.66635
2172.84
166404
1.12061e+06
4.56132e+06
1.52447e+07
5.26633e+07
3.41953e+07
6.36852e+06
528817
0.192933
7.71895e-07
4.25235e-09
2.12275e-10
9.03245e-12
4.76225e-07
0
4.76225e-07
2.73443e-09
6.4315e-06
0.798326
2290.83
157573
1.04203e+06
4.22337e+06
1.41678e+07
4.92387e+07
3.65053e+07
6.87896e+06
714001
0.427715
1.0038e-06
4.57741e-09
2.15107e-10
8.84618e-12
-6.99671e-17
0
-4.47789e-15
4.77452e-07
7.39541e-06
0.990795
2478.67
152819
991821
4.00908e+06
1.34015e+07
4.66955e+07
3.81751e+07
7.2679e+06
888446
0.812342
1.19284e-06
4.49269e-09
2.04858e-10
9.01234e-12
4.76225e-07
4.76225e-07
4.76225e-07
-2.05697e-16
7.14988e-06
0.980365
2579.29
163911
1.05955e+06
4.25824e+06
1.41582e+07
4.91021e+07
3.63015e+07
6.86248e+06
709185
0.378343
8.81981e-07
4.30559e-09
2.05142e-10
8.87146e-12
4.76225e-07
3.83345e-11
3.418e-10
4.7896e-07
6.16297e-06
0.780029
2368.46
168940
1.1142e+06
4.49147e+06
1.49908e+07
5.18012e+07
3.45542e+07
6.46395e+06
560320
0.201142
7.51891e-07
4.22355e-09
1.99531e-10
8.86437e-12
4.76225e-07
-5.59737e-16
4.76567e-07
4.77733e-07
5.10691e-06
0.648636
2239.18
178344
1.19885e+06
4.85483e+06
1.61358e+07
5.53672e+07
3.21823e+07
5.95291e+06
357761
0.094166
5.58954e-07
3.9446e-09
2.05561e-10
9.9017e-12
4.76225e-07
4.76225e-07
4.76567e-07
-1.74843e-16
4.74948e-06
0.588063
2235.76
190912
1.29709e+06
5.22324e+06
1.72617e+07
5.87418e+07
2.9855e+07
5.46544e+06
198804
0.0340823
3.81311e-07
3.52568e-09
1.88867e-10
9.30108e-12
0
0
-4.47661e-15
4.76225e-07
4.24887e-06
0.568354
2296.7
204358
1.38661e+06
5.55286e+06
1.82384e+07
6.15925e+07
2.78229e+07
5.04248e+06
95957.9
0.0141157
2.7019e-07
2.97055e-09
1.62362e-10
7.11685e-12
2.94468e-12
4.76225e-07
0
-1.74843e-16
4.42135e-06
0.570629
2398.78
218242
1.46342e+06
5.82519e+06
1.90247e+07
6.38453e+07
2.61656e+07
4.69159e+06
51479.4
0.00715949
2.05136e-07
2.63925e-09
1.5188e-10
6.42133e-12
5.34069e-12
3.83345e-11
4.76225e-07
-3.5998e-14
4.45417e-06
0.583973
2526.22
229914
1.52485e+06
6.03663e+06
1.96245e+07
6.55385e+07
2.48857e+07
4.41919e+06
31516.6
0.0043224
1.66774e-07
2.34644e-09
1.34415e-10
5.80497e-12
4.76225e-07
4.76244e-07
1.5334e-10
-3.60083e-14
4.29262e-06
0.602669
2636.73
239016
1.57034e+06
6.18947e+06
2.00514e+07
6.67388e+07
2.39586e+07
4.22224e+06
22076.4
0.003021
1.42638e-07
2.15053e-09
1.24621e-10
5.50865e-12
4.76228e-07
-5.59737e-16
0
4.76225e-07
4.38012e-06
0.617766
2718.09
245228
1.60034e+06
6.28887e+06
2.03276e+07
6.75021e+07
2.33565e+07
4.09508e+06
17548.5
0.00240543
1.28853e-07
2.0762e-09
1.22511e-10
5.19859e-12
-6.99671e-17
2.35574e-11
1.5334e-10
2.7344e-09
4.42387e-06
0.625732
2759.43
248284
1.61491e+06
6.33704e+06
2.04616e+07
6.78659e+07
2.30651e+07
4.03413e+06
15741.4
0.00216357
1.23245e-07
1.95302e-09
1.18631e-10
4.95075e-12
4.76225e-07
2.3558e-11
3.41804e-10
4.77733e-07
4.42387e-06
0.62573
2759.43
248283
1.61491e+06
6.33704e+06
2.04616e+07
6.78659e+07
2.30651e+07
4.03413e+06
15741.4
0.00216356
1.2294e-07
1.96302e-09
1.18905e-10
5.04256e-12
-6.99671e-17
4.76249e-07
4.76567e-07
-1.85127e-16
4.6122e-06
0.617762
2718.08
245227
1.60034e+06
6.28887e+06
2.03276e+07
6.75021e+07
2.33565e+07
4.09507e+06
17548.4
0.00240541
1.28858e-07
2.0762e-09
1.21039e-10
5.10679e-12
5.34069e-12
4.27255e-11
3.418e-10
4.76225e-07
4.5247e-06
0.602664
2636.72
239015
1.57034e+06
6.18946e+06
2.00514e+07
6.67388e+07
2.39585e+07
4.22222e+06
22076.1
0.00302096
1.42639e-07
2.15058e-09
1.1812e-10
5.43378e-12
4.76231e-07
4.76225e-07
-4.47661e-15
-3.5998e-14
4.21605e-06
0.583966
2526.2
229913
1.52484e+06
6.03663e+06
1.96245e+07
6.55385e+07
2.48856e+07
4.41917e+06
31516
0.0043223
1.67086e-07
2.36561e-09
1.34415e-10
-3.29089e-12
-6.99671e-17
-5.59576e-16
0
-1.74843e-16
4.41041e-06
0.570621
2398.76
218241
1.46342e+06
5.82519e+06
1.90247e+07
6.38454e+07
2.61655e+07
4.69155e+06
51479.1
0.00715946
2.05821e-07
2.62009e-09
1.37375e-10
6.3293e-12
0
4.76225e-07
4.76567e-07
4.7896e-07
4.48698e-06
0.568344
2296.68
204357
1.3866e+06
5.55286e+06
1.82384e+07
6.15926e+07
2.78227e+07
5.04243e+06
95957.7
0.014116
2.70194e-07
2.99411e-09
1.63403e-10
7.0246e-12
4.76225e-07
-5.59576e-16
1.5334e-10
4.77733e-07
4.50534e-06
0.588051
2235.74
190911
1.29709e+06
5.22324e+06
1.72617e+07
5.87419e+07
2.98547e+07
5.46538e+06
198793
0.0340809
3.81313e-07
3.44023e-09
1.85922e-10
9.30108e-12
2.39594e-12
0
1.53336e-10
-1.85127e-16
5.34012e-06
0.648622
2239.16
178343
1.19885e+06
4.85484e+06
1.61359e+07
5.53673e+07
3.2182e+07
5.95284e+06
357728
0.0941541
5.58575e-07
3.90627e-09
2.0022e-10
8.55364e-12
2.39594e-12
8.54505e-11
4.76225e-07
1.50771e-09
6.16297e-06
0.78001
2368.43
168940
1.1142e+06
4.49148e+06
1.49908e+07
5.18013e+07
3.45539e+07
6.46387e+06
560279
0.201108
7.51896e-07
4.22355e-09
2.10298e-10
-3.06359e-13
2.94468e-12
4.71159e-11
4.76225e-07
2.73443e-09
7.14988e-06
0.980341
2579.26
163911
1.05955e+06
4.25824e+06
1.41582e+07
4.91023e+07
3.6301e+07
6.86237e+06
709148
0.378298
8.81982e-07
4.30571e-09
2.05142e-10
9.05596e-12
-6.99671e-17
0
4.76225e-07
2.73443e-09
7.10613e-06
0.997989
2717.52
175225
1.11899e+06
4.46985e+06
1.47859e+07
5.10753e+07
3.47031e+07
6.52726e+06
583224
0.194108
6.81806e-07
4.02347e-09
2.0561e-10
1.00532e-11
4.76225e-07
-5.59737e-16
1.88459e-10
-3.60186e-14
6.04265e-06
0.786699
2484.3
180620
1.17716e+06
4.71675e+06
1.56601e+07
5.38818e+07
3.29094e+07
6.12716e+06
412868
0.108791
5.8041e-07
3.89846e-09
1.941e-10
8.55807e-12
5.34062e-12
4.76225e-07
4.76379e-07
-1.85127e-16
5.12388e-06
0.655211
2344.38
190686
1.26683e+06
5.10058e+06
1.68614e+07
5.75426e+07
3.05054e+07
5.6084e+06
241793
0.0428507
4.11565e-07
3.56303e-09
1.86908e-10
-1.23145e-12
4.76228e-07
-5.59737e-16
4.76225e-07
4.76225e-07
4.68386e-06
0.591557
2337.88
204071
1.37025e+06
5.48515e+06
1.80273e+07
6.09788e+07
2.81758e+07
5.11886e+06
110919
0.0160937
2.82387e-07
3.05258e-09
1.68545e-10
7.18285e-12
0
-5.59576e-16
1.88459e-10
1.50771e-09
4.65947e-06
0.570629
2398.78
218242
1.46342e+06
5.82519e+06
1.90247e+07
6.38453e+07
2.61656e+07
4.69159e+06
51479.4
0.00715949
2.05821e-07
2.64499e-09
1.46539e-10
6.34645e-12
5.34062e-12
4.76249e-07
4.76379e-07
4.77733e-07
4.57687e-06
0.572123
2502.17
232786
1.54273e+06
6.10377e+06
1.98219e+07
6.60861e+07
2.45407e+07
4.3449e+06
27725.7
0.00383452
1.58908e-07
2.26627e-09
1.31986e-10
5.72337e-12
0
2.3558e-11
4.76414e-07
-1.64558e-16
4.60478e-06
0.584722
2631.85
244905
1.60566e+06
6.31814e+06
2.04238e+07
6.77562e+07
2.32948e+07
4.08072e+06
17179.1
0.00239153
1.2948e-07
2.0559e-09
1.1977e-10
5.19504e-12
4.76225e-07
4.27255e-11
1.28561e-18
4.76225e-07
4.67643e-06
0.602738
2743.85
254304
1.65206e+06
6.47246e+06
2.08516e+07
6.89309e+07
2.23975e+07
3.89218e+06
12145.2
0.00170677
1.11315e-07
1.89616e-09
1.1256e-10
6.15143e-12
4.76225e-07
2.35574e-11
1.5334e-10
-1.74843e-16
4.28168e-06
0.61726
2826.05
260687
1.68246e+06
6.57186e+06
2.1124e+07
6.96739e+07
2.18186e+07
3.77166e+06
9717.83
0.00137751
1.0166e-07
1.80102e-09
9.70734e-11
4.58245e-12
4.76228e-07
-5.59576e-16
1.53336e-10
4.76225e-07
4.32543e-06
0.624883
2867.68
263818
1.6972e+06
6.61998e+06
2.12564e+07
7.00266e+07
2.15392e+07
3.7142e+06
8746.8
0.00124717
9.74338e-08
1.7625e-09
1.02599e-10
4.42509e-12
4.76228e-07
1.9167e-11
4.76379e-07
4.7896e-07
4.56354e-06
0.624882
2867.67
263818
1.6972e+06
6.61998e+06
2.12564e+07
7.00266e+07
2.15391e+07
3.7142e+06
8746.78
0.00124717
9.72805e-08
1.739e-09
1.03797e-10
4.50018e-12
4.76228e-07
4.76249e-07
4.76379e-07
1.50771e-09
4.27565e-06
0.617256
2826.04
260687
1.68246e+06
6.57186e+06
2.1124e+07
6.96739e+07
2.18186e+07
3.77165e+06
9717.74
0.0013775
1.01506e-07
1.80102e-09
1.06244e-10
4.65732e-12
2.94475e-12
4.27255e-11
1.88459e-10
4.77452e-07
4.44323e-06
0.602733
2743.84
254304
1.65206e+06
6.47246e+06
2.08516e+07
6.89309e+07
2.23975e+07
3.89217e+06
12145
0.00170676
1.11316e-07
1.86777e-09
1.03386e-10
4.89517e-12
2.39594e-12
2.35574e-11
3.41804e-10
1.50771e-09
4.60478e-06
0.584716
2631.84
244904
1.60566e+06
6.31813e+06
2.04238e+07
6.77562e+07
2.32947e+07
4.08069e+06
17178.8
0.00239148
1.29481e-07
2.05596e-09
1.2259e-10
5.10302e-12
4.76228e-07
-5.59576e-16
0
1.22672e-09
4.33988e-06
0.572116
2502.15
232786
1.54272e+06
6.10377e+06
1.98219e+07
6.60862e+07
2.45405e+07
4.34486e+06
27725.2
0.00383443
1.58913e-07
2.26621e-09
1.31993e-10
5.64827e-12
0
1.60701e-19
4.76567e-07
2.73443e-09
4.41532e-06
0.570621
2398.76
218241
1.46342e+06
5.82519e+06
1.90247e+07
6.38453e+07
2.61654e+07
4.69153e+06
51478.3
0.00715915
2.05444e-07
2.62009e-09
1.48935e-10
7.67714e-12
4.76231e-07
-5.59737e-16
1.53336e-10
1.22669e-09
4.68386e-06
0.591547
2337.86
204071
1.37025e+06
5.48516e+06
1.80273e+07
6.09789e+07
2.81755e+07
5.11879e+06
110914
0.0160901
2.82389e-07
3.07029e-09
1.7149e-10
7.18285e-12
2.94475e-12
4.76225e-07
1.5334e-10
-1.95412e-16
5.12388e-06
0.655199
2344.36
190686
1.26684e+06
5.1006e+06
1.68615e+07
5.75429e+07
3.0505e+07
5.60832e+06
241773
0.0428413
4.11568e-07
3.60148e-09
1.87956e-10
8.27351e-12
4.76225e-07
-5.59737e-16
3.41804e-10
-1.95412e-16
6.04265e-06
0.786684
2484.28
180620
1.17716e+06
4.71677e+06
1.56602e+07
5.38821e+07
3.2909e+07
6.12707e+06
412836
0.108774
5.80789e-07
3.90752e-09
2.03271e-10
8.70782e-12
5.34069e-12
4.76225e-07
-4.47789e-15
1.22672e-09
7.10613e-06
0.997968
2717.5
175225
1.11899e+06
4.46986e+06
1.47859e+07
5.10756e+07
3.47026e+07
6.52713e+06
583184
0.194083
6.81806e-07
4.07059e-09
2.05617e-10
8.55541e-12
0
4.76225e-07
0
-2.15982e-16
7.27019e-06
1.03326
2877.63
184957
1.16806e+06
4.64151e+06
1.52919e+07
5.26006e+07
3.341e+07
6.26684e+06
465358
0.118219
5.64229e-07
3.87017e-09
2.00752e-10
8.2398e-12
2.39587e-12
4.76225e-07
1.88459e-10
2.7344e-09
6.08149e-06
0.807976
2622.91
190649
1.22891e+06
4.89853e+06
1.61981e+07
5.54817e+07
3.15917e+07
5.85894e+06
308330
0.0592254
4.51887e-07
3.67796e-09
1.92978e-10
8.26154e-12
5.34069e-12
0
4.76225e-07
2.73443e-09
5.18348e-06
0.6727
2472.79
201219
1.32206e+06
5.29466e+06
1.74226e+07
5.92114e+07
2.91837e+07
5.33797e+06
161811
0.0238695
3.23699e-07
3.25234e-09
1.73197e-10
7.65693e-12
2.39587e-12
1.60701e-19
4.76567e-07
4.76225e-07
4.4895e-06
0.606253
2464.3
215221
1.42917e+06
5.68988e+06
1.86136e+07
6.26776e+07
2.68686e+07
4.84448e+06
66569.3
0.00907914
2.23932e-07
2.73838e-09
1.51433e-10
6.56937e-12
5.34069e-12
0
4.76414e-07
1.22669e-09
4.45417e-06
0.583973
2526.22
229914
1.52485e+06
6.03663e+06
1.96245e+07
6.55385e+07
2.48857e+07
4.41919e+06
31516.6
0.0043224
1.66709e-07
2.37e-09
1.35887e-10
5.80519e-12
0
4.2725e-11
-4.47789e-15
4.76225e-07
4.36666e-06
0.584722
2631.85
244905
1.60566e+06
6.31814e+06
2.04238e+07
6.77562e+07
2.32948e+07
4.08072e+06
17179.1
0.00239153
1.29485e-07
2.07512e-09
1.1977e-10
5.10302e-12
0
2.35574e-11
1.5334e-10
1.50767e-09
4.39345e-06
0.596757
2764.78
257313
1.66948e+06
6.53365e+06
2.10244e+07
6.93974e+07
2.20814e+07
3.82598e+06
10751.7
0.00152579
1.06663e-07
1.83881e-09
1.10117e-10
4.90471e-12
4.76228e-07
4.27255e-11
-4.47789e-15
-1.64558e-16
4.21605e-06
0.614308
2879.11
266900
1.71639e+06
6.68831e+06
2.14499e+07
7.05458e+07
2.12107e+07
3.64553e+06
7660.21
0.00110617
9.22513e-08
1.68288e-09
1.01625e-10
4.43462e-12
2.39594e-12
4.76225e-07
4.76567e-07
-1.74843e-16
4.52582e-06
0.628415
2962.73
273389
1.74704e+06
6.78761e+06
2.17202e+07
7.12694e+07
2.06508e+07
3.53076e+06
6159.95
0.000901437
8.44546e-08
1.5617e-09
8.75605e-11
4.11968e-12
0
2.3558e-11
4.76567e-07
2.7344e-09
4.33637e-06
0.635777
3004.92
276563
1.76185e+06
6.83545e+06
2.18506e+07
7.16116e+07
2.03815e+07
3.47628e+06
5558.31
0.000819864
8.10177e-08
1.58456e-09
9.27872e-11
5.47639e-12
0
1.91675e-11
3.41804e-10
-1.85127e-16
4.33637e-06
0.635776
3004.92
276563
1.76185e+06
6.83545e+06
2.18506e+07
7.16116e+07
2.03815e+07
3.47627e+06
5558.29
0.000819864
8.10195e-08
1.60812e-09
8.62833e-11
4.12833e-12
4.76228e-07
4.2725e-11
4.76414e-07
4.76225e-07
4.28659e-06
0.628412
2962.72
273389
1.74704e+06
6.78761e+06
2.17202e+07
7.12694e+07
2.06508e+07
3.53075e+06
6159.88
0.000901432
8.44546e-08
1.60437e-09
9.64533e-11
4.2117e-12
2.94475e-12
4.76268e-07
1.28561e-18
1.22672e-09
4.21002e-06
0.614303
2879.1
266899
1.71639e+06
6.68831e+06
2.14499e+07
7.05459e+07
2.12106e+07
3.64551e+06
7660.06
0.00110615
9.25931e-08
1.63881e-09
1.01625e-10
5.78268e-12
2.39594e-12
1.91675e-11
3.418e-10
4.77452e-07
4.62665e-06
0.596751
2764.77
257312
1.66949e+06
6.53366e+06
2.10244e+07
6.93975e+07
2.20813e+07
3.82595e+06
10751.4
0.00152575
1.06816e-07
1.83881e-09
1.10117e-10
4.90471e-12
4.76225e-07
4.27255e-11
3.41804e-10
1.22669e-09
4.3727e-06
0.584716
2631.84
244905
1.60566e+06
6.31814e+06
2.04239e+07
6.77562e+07
2.32946e+07
4.08068e+06
17178.4
0.00239144
1.2948e-07
2.06595e-09
1.21125e-10
5.19504e-12
4.76228e-07
4.76225e-07
3.41804e-10
-1.74843e-16
4.21605e-06
0.583966
2526.21
229914
1.52485e+06
6.03664e+06
1.96245e+07
6.55386e+07
2.48855e+07
4.41913e+06
31514.9
0.00432215
1.66403e-07
2.34779e-09
1.34415e-10
5.80519e-12
4.76228e-07
3.83351e-11
3.41804e-10
2.73443e-09
4.73855e-06
0.606245
2464.29
215221