/*--------------------------------*- C++ -*----------------------------------*\
  =========                 |
  \\      /  F ield         | OpenFOAM: The Open Source CFD Toolbox
   \\    /   O peration     | Website:  https://openfoam.org
    \\  /    A nd           | Version:  7
     \\/     M anipulation  |
\*---------------------------------------------------------------------------*/
FoamFile
{
    version     2.0;
    format      ascii;
    class       volScalarField;
    location    "0.5";
    object      T;
}
// * * * * * * * * * * * * * * * * * * * * * * * * * * * * * * * * * * * * * //

dimensions      [0 0 0 1 0 0 0];

internalField   nonuniform List<scalar> 
8000
(
293.181
294.53
300.629
325.687
404.507
565.79
781.806
1025.05
1285.31
1542.81
1744.53
1880.25
1736.58
1291.38
830.17
457.346
323.413
297.289
293.54
293.044
293.18
294.527
300.597
325.375
402.873
561.927
777.475
1021.73
1284.32
1544.22
1747.69
1881.47
1724.46
1274.85
814.659
451.013
322.327
297.138
293.521
293.043
293.18
294.522
300.561
325.076
401.262
558.248
773.247
1018.86
1284.32
1547.48
1752.9
1883.23
1706.13
1251.01
794.509
442.472
320.361
296.856
293.486
293.04
293.179
294.512
300.501
324.765
400.108
555.909
770.934
1017.82
1286.05
1552.11
1759.03
1885.02
1686.55
1225.93
768.621
430.563
317.767
296.489
293.441
293.036
293.177
294.501
300.448
324.536
399.401
554.719
770.108
1018.22
1289.03
1557.33
1764.97
1886.6
1668.53
1203.61
743.907
419.658
315.495
296.156
293.399
293.033
293.176
294.493
300.407
324.364
399.026
554.29
770.187
1019.64
1292.57
1562.46
1770.29
1887.9
1653.29
1185.1
722.275
410.772
313.659
295.887
293.366
293.03
293.176
294.489
300.387
324.303
398.956
554.319
770.822
1021.42
1296.05
1567.05
1774.97
1888.98
1641.22
1170.81
704.018
404.466
312.36
295.694
293.34
293.028
293.176
294.487
300.381
324.295
399.007
554.581
771.61
1023.11
1298.99
1570.7
1778.52
1889.79
1632.36
1160.61
691.176
399.549
311.345
295.546
293.321
293.026
293.176
294.487
300.382
324.31
399.103
554.819
772.268
1024.39
1301.09
1573.22
1780.9
1890.33
1626.55
1153.99
682.861
396.343
310.692
295.45
293.309
293.025
293.176
294.487
300.384
324.323
399.144
554.564
772.582
1025.05
1302.16
1574.47
1782.08
1890.59
1623.71
1150.72
678.756
394.797
310.381
295.405
293.303
293.025
293.176
294.487
300.384
324.323
399.144
554.564
772.582
1025.05
1302.16
1574.47
1782.08
1890.59
1623.71
1150.72
678.753
394.795
310.38
295.405
293.303
293.025
293.176
294.487
300.382
324.31
399.103
554.819
772.268
1024.39
1301.09
1573.22
1780.9
1890.33
1626.55
1153.99
682.855
396.341
310.692
295.45
293.309
293.025
293.176
294.487
300.381
324.295
399.007
554.581
771.61
1023.11
1298.99
1570.7
1778.52
1889.79
1632.36
1160.61
691.173
399.548
311.344
295.545
293.321
293.026
293.176
294.489
300.387
324.303
398.956
554.319
770.821
1021.42
1296.05
1567.05
1774.97
1888.98
1641.22
1170.8
704.017
404.465
312.36
295.694
293.34
293.028
293.176
294.493
300.407
324.364
399.026
554.29
770.187
1019.64
1292.57
1562.46
1770.29
1887.9
1653.29
1185.1
722.273
410.771
313.659
295.887
293.366
293.03
293.177
294.501
300.448
324.536
399.401
554.719
770.107
1018.22
1289.03
1557.33
1764.97
1886.6
1668.53
1203.6
743.905
419.657
315.495
296.156
293.399
293.033
293.179
294.512
300.501
324.765
400.108
555.909
770.933
1017.82
1286.05
1552.11
1759.03
1885.02
1686.55
1225.93
768.62
430.562
317.767
296.489
293.441
293.036
293.18
294.522
300.561
325.076
401.262
558.247
773.247
1018.86
1284.32
1547.48
1752.9
1883.23
1706.13
1251.01
794.508
442.471
320.36
296.855
293.486
293.04
293.18
294.527
300.597
325.375
402.872
561.926
777.474
1021.73
1284.32
1544.22
1747.69
1881.47
1724.46
1274.85
814.659
451.012
322.327
297.138
293.521
293.043
293.181
294.53
300.629
325.687
404.507
565.789
781.805
1025.05
1285.31
1542.81
1744.53
1880.25
1736.58
1291.38
830.169
457.345
323.412
297.289
293.54
293.044
293.18
294.527
300.597
325.375
402.873
561.927
777.475
1021.73
1284.32
1544.22
1747.69
1881.47
1724.46
1274.85
814.659
451.013
322.327
297.138
293.521
293.043
293.18
294.524
300.567
325.04
401.05
557.405
772.34
1017.73
1283.1
1545.58
1751.05
1882.72
1710.95
1256.75
800.134
445.147
320.934
296.948
293.499
293.041
293.18
294.52
300.532
324.744
399.545
553.328
767.486
1014.22
1282.74
1548.85
1756.54
1884.47
1690.88
1230.45
773.101
433.157
318.616
296.658
293.464
293.038
293.178
294.508
300.463
324.398
398.318
550.711
764.779
1012.83
1284.29
1553.55
1762.92
1886.25
1669.99
1204.38
745.217
421.178
316.295
296.311
293.421
293.035
293.177
294.497
300.407
324.161
397.57
549.329
763.717
1013
1287.2
1558.89
1769.17
1887.81
1651.05
1181.51
719.48
411.222
314.256
296.014
293.382
293.031
293.176
294.489
300.369
324.014
397.057
548.74
763.612
1014.25
1290.72
1564.12
1774.64
1889.08
1635.21
1163
697.155
403.531
312.529
295.751
293.348
293.029
293.175
294.484
300.345
323.931
396.864
548.64
764.106
1015.92
1294.19
1568.78
1779.41
1890.11
1622.75
1148.88
681.309
396.353
310.938
295.517
293.319
293.026
293.175
294.482
300.336
323.909
396.85
548.824
764.806
1017.53
1297.13
1572.48
1783.03
1890.88
1613.58
1138.71
670.883
391.655
309.952
295.371
293.301
293.025
293.175
294.481
300.335
323.918
396.918
549.167
765.451
1018.77
1299.23
1575.02
1785.46
1891.39
1607.56
1132
662.973
388.662
309.345
295.282
293.289
293.024
293.175
294.481
300.337
323.938
397.032
549.931
765.902
1019.43
1300.3
1576.29
1786.66
1891.64
1604.61
1128.74
658.917
387.169
309.055
295.24
293.284
293.023
293.175
294.481
300.337
323.938
397.032
549.931
765.902
1019.43
1300.3
1576.29
1786.66
1891.64
1604.61
1128.74
658.916
387.169
309.055
295.24
293.284
293.023
293.175
294.481
300.335
323.918
396.918
549.167
765.451
1018.77
1299.23
1575.02
1785.46
1891.39
1607.56
1132
662.971
388.662
309.346
295.282
293.289
293.024
293.175
294.482
300.336
323.909
396.85
548.824
764.806
1017.53
1297.13
1572.48
1783.03
1890.88
1613.58
1138.7
670.882
391.655
309.952
295.371
293.301
293.025
293.175
294.484
300.345
323.93
396.864
548.639
764.105
1015.92
1294.19
1568.78
1779.41
1890.11
1622.75
1148.88
681.308
396.352
310.938
295.517
293.319
293.026
293.176
294.489
300.369
324.013
397.057
548.739
763.612
1014.25
1290.72
1564.12
1774.64
1889.08
1635.21
1162.99
697.153
403.529
312.528
295.751
293.348
293.029
293.177
294.497
300.407
324.16
397.57
549.328
763.716
1013
1287.2
1558.89
1769.17
1887.81
1651.05
1181.5
719.478
411.221
314.256
296.014
293.382
293.031
293.178
294.508
300.463
324.397
398.317
550.711
764.778
1012.83
1284.29
1553.55
1762.92
1886.25
1669.98
1204.38
745.216
421.178
316.295
296.311
293.421
293.035
293.18
294.52
300.532
324.744
399.544
553.327
767.485
1014.22
1282.74
1548.84
1756.54
1884.47
1690.88
1230.45
773.101
433.157
318.616
296.658
293.464
293.038
293.18
294.524
300.567
325.04
401.05
557.404
772.339
1017.72
1283.1
1545.58
1751.05
1882.72
1710.95
1256.75
800.134
445.146
320.933
296.948
293.499
293.041
293.18
294.527
300.597
325.375
402.872
561.926
777.475
1021.73
1284.32
1544.22
1747.69
1881.47
1724.46
1274.85
814.658
451.012
322.327
297.138
293.521
293.043
293.18
294.522
300.561
325.076
401.262
558.248
773.247
1018.86
1284.32
1547.48
1752.9
1883.23
1706.13
1251.01
794.509
442.472
320.361
296.856
293.486
293.04
293.18
294.52
300.532
324.744
399.545
553.328
767.486
1014.22
1282.74
1548.85
1756.54
1884.47
1690.88
1230.45
773.101
433.157
318.616
296.658
293.464
293.038
293.179
294.515
300.489
324.372
397.584
548.86
762.189
1010.25
1282.13
1552.23
1762.38
1886.18
1669.01
1202.93
744.629
421.943
316.841
296.419
293.434
293.036
293.178
294.502
300.415
323.999
396.257
546.114
759.299
1008.68
1283.6
1557.13
1769.08
1887.89
1646.82
1176.33
715.593
410.735
314.383
296.057
293.388
293.032
293.176
294.491
300.362
323.773
395.568
544.74
758.164
1008.77
1286.53
1562.7
1775.63
1889.38
1627.05
1153.65
689.927
401.935
312.25
295.729
293.348
293.029
293.176
294.484
300.331
323.675
395.35
544.229
758.035
1010
1290.11
1568.11
1781.38
1890.57
1610.68
1135.48
670.974
392.918
310.466
295.472
293.315
293.026
293.175
294.48
300.31
323.596
395.229
544.151
758.51
1011.66
1293.63
1572.86
1786.11
1891.48
1597.76
1121.05
654.814
386.761
309.221
295.29
293.292
293.024
293.175
294.478
300.299
323.575
395.23
544.319
759.187
1013.27
1296.6
1576.64
1789.82
1892.14
1588.15
1109.92
639.999
381.945
308.309
295.161
293.276
293.023
293.175
294.477
300.297
323.58
395.292
544.553
759.785
1014.49
1298.71
1579.22
1792.28
1892.58
1581.88
1102.79
632.212
379.229
307.784
295.086
293.266
293.022
293.175
294.477
300.298
323.59
395.349
544.726
760.13
1015.13
1299.78
1580.51
1793.49
1892.79
1578.84
1099.37
628.731
378.015
307.552
295.052
293.262
293.022
293.175
294.477
300.298
323.59
395.349
544.726
760.13
1015.13
1299.78
1580.51
1793.49
1892.79
1578.84
1099.37
628.731
378.015
307.552
295.052
293.262
293.022
293.175
294.477
300.297
323.58
395.292
544.553
759.784
1014.49
1298.71
1579.22
1792.28
1892.58
1581.88
1102.79
632.212
379.23
307.784
295.086
293.266
293.022
293.175
294.478
300.299
323.575
395.23
544.319
759.186
1013.27
1296.6
1576.64
1789.81
1892.14
1588.14
1109.92
639.999
381.945
308.309
295.161
293.276
293.023
293.175
294.48
300.31
323.596
395.229
544.15
758.51
1011.66
1293.63
1572.86
1786.11
1891.48
1597.76
1121.05
654.814
386.76
309.221
295.29
293.292
293.024
293.176
294.484
300.331
323.675
395.35
544.229
758.035
1010
1290.11
1568.11
1781.38
1890.57
1610.68
1135.48
670.973
392.916
310.465
295.472
293.315
293.026
293.176
294.491
300.362
323.773
395.567
544.739
758.164
1008.77
1286.53
1562.69
1775.63
1889.37
1627.05
1153.64
689.924
401.934
312.25
295.729
293.348
293.029
293.178
294.502
300.415
323.998
396.257
546.114
759.298
1008.68
1283.6
1557.13
1769.08
1887.89
1646.82
1176.32
715.591
410.735
314.383
296.057
293.388
293.032
293.179
294.515
300.489
324.372
397.584
548.86
762.189
1010.25
1282.13
1552.23
1762.38
1886.18
1669.01
1202.92
744.629
421.943
316.841
296.419
293.434
293.036
293.18
294.52
300.532
324.744
399.544
553.327
767.485
1014.22
1282.74
1548.84
1756.54
1884.47
1690.88
1230.45
773.101
433.157
318.616
296.658
293.464
293.038
293.18
294.522
300.561
325.076
401.262
558.247
773.247
1018.86
1284.32
1547.48
1752.9
1883.23
1706.13
1251.01
794.508
442.471
320.36
296.855
293.486
293.04
293.179
294.512
300.501
324.765
400.108
555.909
770.934
1017.82
1286.05
1552.11
1759.03
1885.02
1686.55
1225.93
768.621
430.563
317.767
296.489
293.441
293.036
293.178
294.508
300.463
324.398
398.318
550.711
764.779
1012.83
1284.29
1553.55
1762.92
1886.25
1669.99
1204.38
745.217
421.178
316.295
296.311
293.421
293.035
293.178
294.502
300.415
323.999
396.257
546.114
759.299
1008.68
1283.6
1557.13
1769.08
1887.89
1646.82
1176.33
715.593
410.735
314.383
296.057
293.388
293.032
293.176
294.488
300.335
323.604
394.9
543.323
756.38
1007.08
1285.12
1562.27
1776.02
1889.48
1623.75
1149.96
686.603
400.965
312.108
295.717
293.347
293.029
293.175
294.477
300.276
323.354
394.136
541.918
755.25
1007.18
1288.17
1568.03
1782.77
1890.84
1603.4
1127.43
663.201
390.549
310.095
295.431
293.311
293.026
293.174
294.469
300.242
323.226
393.783
541.373
755.129
1008.44
1291.85
1573.61
1788.68
1891.9
1586.55
1108.68
641.698
382.932
308.611
295.218
293.284
293.024
293.173
294.466
300.227
323.191
393.663
541.29
755.615
1010.12
1295.44
1578.44
1793.46
1892.68
1573.33
1093.79
625.873
377.567
307.577
295.069
293.265
293.022
293.173
294.464
300.224
323.177
393.659
541.452
756.293
1011.74
1298.45
1582.23
1797.07
1893.23
1563.65
1082.86
615.397
374.069
306.904
294.971
293.252
293.021
293.173
294.464
300.222
323.18
393.709
541.668
756.882
1012.97
1300.58
1584.82
1799.54
1893.59
1557.37
1075.8
609.16
371.967
306.497
294.912
293.245
293.02
293.173
294.464
300.223
323.187
393.749
541.803
757.204
1013.6
1301.66
1586.11
1800.75
1893.76
1554.33
1072.42
606.31
371.011
306.312
294.884
293.241
293.02
293.173
294.464
300.223
323.187
393.749
541.803
757.204
1013.6
1301.66
1586.11
1800.75
1893.76
1554.33
1072.42
606.31
371.011
306.312
294.884
293.241
293.02
293.173
294.464
300.222
323.18
393.709
541.668
756.882
1012.97
1300.58
1584.82
1799.54
1893.59
1557.37
1075.8
609.16
371.967
306.497
294.912
293.245
293.02
293.173
294.464
300.224
323.177
393.658
541.452
756.293
1011.74
1298.45
1582.23
1797.07
1893.23
1563.65
1082.86
615.397
374.068
306.904
294.971
293.252
293.021
293.173
294.466
300.227
323.191
393.662
541.29
755.614
1010.12
1295.44
1578.44
1793.46
1892.68
1573.33
1093.79
625.873
377.566
307.576
295.069
293.265
293.022
293.174
294.469
300.242
323.226
393.783
541.373
755.129
1008.44
1291.85
1573.61
1788.68
1891.9
1586.54
1108.68
641.697
382.93
308.61
295.218
293.284
293.024
293.175
294.477
300.276
323.354
394.136
541.918
755.25
1007.18
1288.17
1568.03
1782.77
1890.84
1603.4
1127.42
663.199
390.549
310.095
295.431
293.311
293.026
293.176
294.488
300.335
323.604
394.9
543.323
756.38
1007.08
1285.12
1562.27
1776.02
1889.48
1623.75
1149.96
686.601
400.964
312.108
295.717
293.347
293.029
293.178
294.502
300.415
323.998
396.257
546.114
759.298
1008.68
1283.6
1557.13
1769.08
1887.89
1646.82
1176.32
715.591
410.734
314.383
296.057
293.388
293.032
293.178
294.508
300.463
324.397
398.317
550.711
764.778
1012.83
1284.29
1553.55
1762.92
1886.25
1669.98
1204.38
745.215
421.178
316.295
296.311
293.421
293.035
293.179
294.512
300.501
324.765
400.108
555.909
770.933
1017.82
1286.05
1552.11
1759.03
1885.02
1686.55
1225.93
768.619
430.562
317.767
296.489
293.441
293.036
293.177
294.501
300.448
324.536
399.401
554.719
770.108
1018.22
1289.03
1557.33
1764.97
1886.6
1668.53
1203.61
743.907
419.658
315.495
296.156
293.399
293.033
293.177
294.497
300.407
324.161
397.57
549.329
763.717
1013
1287.2
1558.89
1769.17
1887.81
1651.05
1181.51
719.48
411.222
314.256
296.014
293.382
293.031
293.176
294.491
300.362
323.773
395.568
544.74
758.164
1008.77
1286.53
1562.7
1775.63
1889.38
1627.05
1153.65
689.927
401.935
312.25
295.729
293.348
293.029
293.175
294.477
300.276
323.354
394.136
541.918
755.25
1007.18
1288.17
1568.03
1782.77
1890.84
1603.4
1127.43
663.201
390.549
310.095
295.431
293.311
293.026
293.173
294.465
300.218
323.104
393.358
540.507
754.133
1007.29
1291.32
1573.94
1789.59
1892.03
1582.56
1104.24
637.087
381.693
308.422
295.196
293.282
293.023
293.173
294.458
300.182
322.966
392.986
539.957
754.018
1008.58
1295.08
1579.59
1795.53
1892.95
1565.49
1085.3
618.715
375.481
307.235
295.026
293.26
293.022
293.172
294.454
300.164
322.905
392.855
539.872
754.506
1010.27
1298.71
1584.45
1800.32
1893.6
1552.27
1070.58
605.836
371.163
306.405
294.905
293.244
293.02
293.172
294.452
300.157
322.887
392.848
540.029
755.18
1011.89
1301.73
1588.22
1803.88
1894.06
1542.68
1059.92
597.15
368.239
305.84
294.822
293.234
293.019
293.172
294.452
300.155
322.889
392.894
540.237
755.76
1013.1
1303.86
1590.79
1806.26
1894.35
1536.49
1053.05
591.799
366.435
305.49
294.771
293.227
293.019
293.172
294.451
300.155
322.894
392.93
540.364
756.074
1013.73
1304.93
1592.06
1807.45
1894.5
1533.51
1049.77
589.326
365.608
305.331
294.747
293.224
293.018
293.172
294.451
300.155
322.894
392.93
540.364
756.074
1013.73
1304.93
1592.06
1807.45
1894.5
1533.51
1049.77
589.326
365.608
305.331
294.747
293.224
293.018
293.172
294.452
300.155
322.889
392.894
540.237
755.76
1013.1
1303.86
1590.79
1806.26
1894.35
1536.49
1053.05
591.798
366.435
305.49
294.771
293.227
293.019
293.172
294.452
300.157
322.887
392.848
540.029
755.18
1011.89
1301.73
1588.22
1803.88
1894.06
1542.68
1059.92
597.149
368.239
305.84
294.822
293.234
293.019
293.172
294.454
300.164
322.905
392.855
539.871
754.506
1010.27
1298.71
1584.45
1800.32
1893.6
1552.27
1070.58
605.835
371.163
306.405
294.905
293.244
293.02
293.173
294.458
300.182
322.965
392.986
539.957
754.018
1008.58
1295.08
1579.59
1795.52
1892.94
1565.49
1085.3
618.715
375.481
307.235
295.026
293.26
293.022
293.173
294.465
300.218
323.104
393.358
540.506
754.132
1007.29
1291.32
1573.94
1789.59
1892.03
1582.56
1104.24
637.087
381.693
308.422
295.196
293.282
293.023
293.175
294.477
300.276
323.354
394.136
541.918
755.25
1007.18
1288.17
1568.03
1782.77
1890.84
1603.4
1127.42
663.199
390.548
310.094
295.431
293.311
293.026
293.176
294.491
300.362
323.773
395.567
544.739
758.164
1008.77
1286.53
1562.7
1775.63
1889.38
1627.05
1153.64
689.923
401.933
312.249
295.729
293.348
293.029
293.177
294.497
300.407
324.16
397.57
549.328
763.716
1013
1287.2
1558.89
1769.17
1887.81
1651.05
1181.5
719.476
411.22
314.256
296.014
293.382
293.031
293.177
294.501
300.448
324.536
399.401
554.719
770.107
1018.22
1289.03
1557.33
1764.97
1886.6
1668.53
1203.6
743.903
419.656
315.495
296.156
293.399
293.033
293.176
294.493
300.407
324.364
399.026
554.29
770.187
1019.64
1292.57
1562.46
1770.29
1887.9
1653.29
1185.1
722.275
410.772
313.659
295.887
293.366
293.03
293.176
294.489
300.369
324.014
397.057
548.74
763.612
1014.25
1290.72
1564.12
1774.64
1889.08
1635.21
1163
697.155
403.531
312.529
295.751
293.348
293.029
293.176
294.484
300.331
323.675
395.35
544.229
758.035
1010
1290.11
1568.11
1781.38
1890.57
1610.68
1135.48
670.974
392.918
310.466
295.472
293.315
293.026
293.174
294.469
300.242
323.226
393.783
541.373
755.129
1008.44
1291.85
1573.61
1788.68
1891.9
1586.55
1108.68
641.698
382.932
308.611
295.218
293.284
293.024
293.173
294.458
300.182
322.966
392.986
539.957
754.018
1008.58
1295.08
1579.59
1795.53
1892.95
1565.49
1085.3
618.715
375.481
307.235
295.026
293.26
293.022
293.172
294.451
300.146
322.826
392.611
539.405
753.904
1009.87
1298.88
1585.26
1801.44
1893.73
1548.43
1066.45
602.668
370.18
306.233
294.882
293.242
293.02
293.171
294.447
300.128
322.764
392.478
539.314
754.385
1011.56
1302.52
1590.09
1806.18
1894.29
1535.33
1051.98
591.306
366.39
305.509
294.777
293.228
293.019
293.171
294.445
300.121
322.745
392.468
539.463
755.049
1013.17
1305.53
1593.82
1809.69
1894.67
1525.9
1041.6
583.533
363.783
305.007
294.704
293.219
293.018
293.171
294.444
300.12
322.747
392.511
539.662
755.618
1014.37
1307.64
1596.35
1812
1894.92
1519.85
1034.95
578.713
362.167
304.696
294.659
293.213
293.018
293.171
294.444
300.12
322.751
392.543
539.783
755.925
1014.99
1308.7
1597.6
1813.15
1895.04
1516.95
1031.8
576.481
361.426
304.554
294.638
293.21
293.017
293.171
294.444
300.12
322.751
392.543
539.783
755.925
1014.99
1308.7
1597.6
1813.15
1895.04
1516.95
1031.8
576.481
361.426
304.554
294.638
293.21
293.017
293.171
294.444
300.12
322.747
392.51
539.662
755.618
1014.37
1307.64
1596.35
1812
1894.92
1519.85
1034.95
578.713
362.167
304.696
294.659
293.213
293.018
293.171
294.445
300.121
322.745
392.468
539.463
755.048
1013.17
1305.53
1593.82
1809.69
1894.67
1525.9
1041.6
583.533
363.783
305.007
294.704
293.219
293.018
293.171
294.447
300.128
322.764
392.478
539.314
754.385
1011.56
1302.52
1590.09
1806.18
1894.29
1535.33
1051.98
591.306
366.39
305.509
294.777
293.228
293.019
293.172
294.451
300.146
322.826
392.611
539.404
753.904
1009.87
1298.88
1585.26
1801.44
1893.73
1548.43
1066.45
602.668
370.18
306.233
294.882
293.242
293.02
293.173
294.458
300.182
322.965
392.986
539.957
754.018
1008.58
1295.08
1579.59
1795.53
1892.95
1565.49
1085.3
618.715
375.481
307.235
295.026
293.26
293.022
293.174
294.469
300.242
323.226
393.783
541.373
755.129
1008.44
1291.85
1573.61
1788.68
1891.9
1586.54
1108.68
641.697
382.93
308.61
295.218
293.284
293.024
293.176
294.484
300.331
323.675
395.35
544.229
758.035
1010
1290.11
1568.11
1781.38
1890.57
1610.68
1135.48
670.971
392.915
310.465
295.472
293.315
293.026
293.176
294.489
300.369
324.013
397.057
548.739
763.612
1014.25
1290.72
1564.12
1774.64
1889.08
1635.21
1162.99
697.151
403.529
312.528
295.751
293.348
293.029
293.176
294.493
300.407
324.364
399.026
554.29
770.187
1019.64
1292.57
1562.46
1770.29
1887.9
1653.28
1185.09
722.271
410.77
313.658
295.887
293.366
293.03
293.176
294.489
300.387
324.303
398.956
554.319
770.822
1021.42
1296.05
1567.05
1774.97
1888.98
1641.22
1170.81
704.018
404.466
312.36
295.694
293.34
293.028
293.175
294.484
300.345
323.931
396.864
548.64
764.106
1015.92
1294.19
1568.78
1779.41
1890.11
1622.75
1148.88
681.309
396.353
310.938
295.517
293.319
293.026
293.175
294.48
300.31
323.596
395.229
544.151
758.51
1011.66
1293.63
1572.86
1786.11
1891.48
1597.76
1121.05
654.814
386.761
309.221
295.29
293.292
293.024
293.173
294.466
300.227
323.191
393.663
541.29
755.615
1010.12
1295.44
1578.44
1793.46
1892.68
1573.33
1093.79
625.873
377.567
307.577
295.069
293.265
293.022
293.172
294.454
300.164
322.905
392.855
539.872
754.506
1010.27
1298.71
1584.45
1800.32
1893.6
1552.27
1070.58
605.836
371.163
306.405
294.905
293.244
293.02
293.171
294.447
300.128
322.764
392.478
539.314
754.385
1011.56
1302.52
1590.09
1806.18
1894.29
1535.33
1051.98
591.306
366.39
305.509
294.777
293.228
293.019
293.171
294.443
300.111
322.703
392.342
539.217
754.851
1013.24
1306.13
1594.87
1810.84
1894.78
1522.41
1037.84
580.871
362.93
304.852
294.682
293.216
293.018
293.171
294.441
300.104
322.683
392.328
539.355
755.496
1014.82
1309.12
1598.56
1814.3
1895.11
1513.17
1027.75
573.68
360.535
304.394
294.616
293.207
293.017
293.17
294.441
300.102
322.683
392.366
539.543
756.05
1016
1311.21
1601.04
1816.57
1895.33
1507.25
1021.32
569.201
359.043
304.109
294.574
293.202
293.017
293.17
294.44
300.102
322.687
392.394
539.657
756.347
1016.61
1312.25
1602.27
1817.69
1895.43
1504.42
1018.28
567.123
358.358
303.978
294.555
293.2
293.016
293.17
294.44
300.102
322.687
392.394
539.657
756.347
1016.61
1312.25
1602.27
1817.69
1895.43
1504.42
1018.28
567.123
358.358
303.978
294.555
293.2
293.016
293.17
294.441
300.102
322.683
392.366
539.543
756.05
1016
1311.21
1601.04
1816.57
1895.33
1507.25
1021.32
569.201
359.043
304.109
294.574
293.202
293.017
293.171
294.441
300.104
322.683
392.328
539.355
755.496
1014.82
1309.12
1598.56
1814.3
1895.11
1513.16
1027.75
573.68
360.535
304.394
294.616
293.207
293.017
293.171
294.443
300.111
322.703
392.342
539.217
754.85
1013.24
1306.13
1594.87
1810.84
1894.78
1522.41
1037.84
580.871
362.93
304.852
294.682
293.216
293.018
293.171
294.447
300.128
322.764
392.478
539.314
754.385
1011.56
1302.52
1590.09
1806.18
1894.29
1535.33
1051.98
591.306
366.389
305.509
294.777
293.228
293.019
293.172
294.454
300.164
322.905
392.855
539.871
754.506
1010.27
1298.71
1584.45
1800.32
1893.6
1552.27
1070.58
605.835
371.163
306.405
294.905
293.244
293.02
293.173
294.466
300.227
323.191
393.662
541.29
755.614
1010.12
1295.44
1578.44
1793.46
1892.68
1573.33
1093.79
625.872
377.566
307.576
295.069
293.265
293.022
293.175
294.48
300.31
323.596
395.229
544.15
758.51
1011.66
1293.63
1572.86
1786.11
1891.48
1597.75
1121.04
654.812
386.76
309.221
295.29
293.292
293.024
293.175
294.484
300.345
323.93
396.864
548.639
764.105
1015.92
1294.19
1568.78
1779.41
1890.11
1622.75
1148.87
681.306
396.351
310.938
295.517
293.319
293.026
293.176
294.489
300.387
324.303
398.956
554.319
770.822
1021.42
1296.05
1567.05
1774.97
1888.98
1641.22
1170.8
704.015
404.464
312.36
295.694
293.34
293.028
293.176
294.487
300.381
324.295
399.007
554.581
771.61
1023.11
1298.99
1570.7
1778.52
1889.79
1632.36
1160.61
691.176
399.549
311.345
295.546
293.321
293.026
293.175
294.482
300.336
323.909
396.85
548.824
764.806
1017.53
1297.13
1572.48
1783.03
1890.88
1613.58
1138.71
670.883
391.655
309.952
295.371
293.301
293.025
293.175
294.478
300.299
323.575
395.23
544.319
759.187
1013.27
1296.6
1576.64
1789.82
1892.14
1588.15
1109.92
639.999
381.945
308.309
295.161
293.276
293.023
293.173
294.464
300.224
323.177
393.659
541.452
756.293
1011.74
1298.45
1582.23
1797.07
1893.23
1563.65
1082.86
615.397
374.069
306.904
294.971
293.252
293.021
293.172
294.452
300.157
322.887
392.848
540.029
755.18
1011.89
1301.73
1588.22
1803.88
1894.06
1542.68
1059.92
597.15
368.239
305.84
294.822
293.234
293.019
293.171
294.445
300.121
322.745
392.468
539.463
755.049
1013.17
1305.53
1593.82
1809.69
1894.67
1525.9
1041.6
583.533
363.783
305.007
294.704
293.219
293.018
293.171
294.441
300.104
322.683
392.328
539.355
755.496
1014.82
1309.12
1598.56
1814.3
1895.11
1513.17
1027.75
573.68
360.535
304.394
294.616
293.207
293.017
293.17
294.439
300.097
322.662
392.309
539.476
756.123
1016.37
1312.08
1602.2
1817.7
1895.41
1504.08
1017.9
566.855
358.272
303.965
294.554
293.199
293.016
293.17
294.439
300.094
322.66
392.341
539.648
756.657
1017.54
1314.14
1604.65
1819.93
1895.6
1498.27
1011.64
562.582
356.855
303.696
294.515
293.195
293.016
293.17
294.438
300.093
322.661
392.365
539.749
756.943
1018.13
1315.17
1605.85
1821.03
1895.69
1495.5
1008.68
560.593
356.204
303.573
294.497
293.192
293.016
293.17
294.438
300.093
322.661
392.365
539.749
756.943
1018.13
1315.17
1605.85
1821.03
1895.69
1495.5
1008.68
560.593
356.204
303.573
294.497
293.192
293.016
293.17
294.439
300.094
322.66
392.341
539.648
756.657
1017.54
1314.14
1604.65
1819.93
1895.6
1498.27
1011.64
562.582
356.855
303.696
294.515
293.195
293.016
293.17
294.439
300.097
322.662
392.309
539.476
756.122
1016.37
1312.08
1602.2
1817.7
1895.41
1504.08
1017.9
566.854
358.272
303.965
294.554
293.199
293.016
293.171
294.441
300.104
322.683
392.328
539.355
755.496
1014.82
1309.12
1598.56
1814.3
1895.11
1513.16
1027.75
573.68
360.535
304.394
294.616
293.207
293.017
293.171
294.445
300.121
322.745
392.468
539.463
755.048
1013.17
1305.53
1593.82
1809.69
1894.67
1525.9
1041.6
583.532
363.783
305.007
294.704
293.219
293.018
293.172
294.452
300.157
322.887
392.848
540.029
755.18
1011.89
1301.73
1588.22
1803.88
1894.06
1542.68
1059.92
597.148
368.239
305.84
294.822
293.234
293.019
293.173
294.464
300.224
323.177
393.658
541.452
756.293
1011.74
1298.45
1582.23
1797.08
1893.23
1563.65
1082.86
615.395
374.068
306.904
294.971
293.252
293.021
293.175
294.478
300.299
323.575
395.23
544.319
759.187
1013.27
1296.6
1576.64
1789.82
1892.14
1588.14
1109.92
639.997
381.944
308.309
295.161
293.276
293.023
293.175
294.482
300.336
323.909
396.85
548.824
764.806
1017.53
1297.13
1572.48
1783.03
1890.88
1613.57
1138.7
670.878
391.654
309.952
295.371
293.301
293.025
293.176
294.487
300.381
324.295
399.007
554.581
771.61
1023.11
1298.99
1570.7
1778.52
1889.79
1632.35
1160.6
691.17
399.547
311.344
295.545
293.321
293.026
293.176
294.487
300.382
324.31
399.103
554.819
772.268
1024.39
1301.09
1573.22
1780.9
1890.33
1626.55
1153.99
682.861
396.343
310.692
295.45
293.309
293.025
293.175
294.481
300.335
323.918
396.918
549.167
765.451
1018.77
1299.23
1575.02
1785.46
1891.39
1607.56
1132
662.973
388.662
309.345
295.282
293.289
293.024
293.175
294.477
300.297
323.58
395.292
544.553
759.785
1014.49
1298.71
1579.22
1792.28
1892.58
1581.88
1102.79
632.212
379.229
307.784
295.086
293.266
293.022
293.173
294.464
300.222
323.18
393.709
541.668
756.882
1012.97
1300.58
1584.82
1799.54
1893.59
1557.37
1075.8
609.16
371.967
306.497
294.912
293.245
293.02
293.172
294.452
300.155
322.889
392.894
540.237
755.76
1013.1
1303.86
1590.79
1806.26
1894.35
1536.49
1053.05
591.799
366.435
305.49
294.771
293.227
293.019
293.171
294.444
300.12
322.747
392.511
539.662
755.618
1014.37
1307.64
1596.35
1812
1894.92
1519.85
1034.95
578.713
362.167
304.696
294.659
293.213
293.018
293.17
294.441
300.102
322.683
392.366
539.543
756.05
1016
1311.21
1601.04
1816.57
1895.33
1507.25
1021.32
569.201
359.043
304.109
294.574
293.202
293.017
293.17
294.439
300.094
322.66
392.341
539.648
756.657
1017.54
1314.14
1604.65
1819.93
1895.6
1498.27
1011.64
562.582
356.855
303.696
294.515
293.195
293.016
293.17
294.438
300.091
322.654
392.361
539.799
757.175
1018.68
1316.19
1607.07
1822.13
1895.77
1492.54
1005.48
558.407
355.484
303.436
294.477
293.19
293.016
293.17
294.437
300.088
322.649
392.374
539.885
757.45
1019.27
1317.21
1608.26
1823.21
1895.85
1489.81
1002.57
556.451
354.847
303.311
294.459
293.187
293.015
293.17
294.437
300.088
322.649
392.374
539.885
757.45
1019.27
1317.21
1608.26
1823.21
1895.85
1489.81
1002.57
556.451
354.847
303.311
294.459
293.187
293.015
293.17
294.438
300.091
322.654
392.361
539.799
757.175
1018.68
1316.19
1607.07
1822.13
1895.77
1492.54
1005.48
558.407
355.484
303.435
294.477
293.19
293.016
293.17
294.439
300.094
322.66
392.341
539.648
756.657
1017.54
1314.14
1604.65
1819.93
1895.6
1498.27
1011.64
562.581
356.855
303.696
294.515
293.195
293.016
293.17
294.441
300.102
322.683
392.365
539.543
756.05
1016
1311.21
1601.04
1816.57
1895.33
1507.25
1021.32
569.2
359.043
304.109
294.574
293.202
293.017
293.171
294.444
300.12
322.747
392.51
539.662
755.618
1014.37
1307.64
1596.35
1812
1894.92
1519.85
1034.95
578.712
362.167
304.696
294.659
293.213
293.018
293.172
294.452
300.155
322.889
392.894
540.237
755.76
1013.1
1303.86
1590.79
1806.26
1894.36
1536.49
1053.05
591.797
366.434
305.49
294.771
293.227
293.019
293.173
294.464
300.222
323.18
393.709
541.668
756.882
1012.97
1300.58
1584.83
1799.55
1893.59
1557.37
1075.8
609.158
371.966
306.497
294.912
293.245
293.02
293.175
294.477
300.297
323.58
395.292
544.553
759.785
1014.49
1298.72
1579.22
1792.28
1892.58
1581.88
1102.79
632.21
379.228
307.784
295.086
293.266
293.022
293.175
294.481
300.335
323.918
396.918
549.167
765.451
1018.77
1299.23
1575.02
1785.47
1891.39
1607.55
1132
662.967
388.66
309.345
295.282
293.289
293.024
293.176
294.487
300.382
324.31
399.103
554.819
772.268
1024.39
1301.09
1573.22
1780.9
1890.33
1626.54
1153.98
682.851
396.341
310.691
295.45
293.309
293.025
293.176
294.487
300.384
324.323
399.144
554.564
772.582
1025.05
1302.16
1574.47
1782.08
1890.59
1623.71
1150.72
678.756
394.797
310.381
295.405
293.303
293.025
293.175
294.481
300.337
323.938
397.032
549.931
765.902
1019.43
1300.3
1576.29
1786.66
1891.64
1604.61
1128.74
658.917
387.169
309.055
295.24
293.284
293.023
293.175
294.477
300.298
323.59
395.349
544.726
760.13
1015.13
1299.78
1580.51
1793.49
1892.79
1578.84
1099.37
628.731
378.015
307.552
295.052
293.262
293.022
293.173
294.464
300.223
323.187
393.749
541.803
757.204
1013.6
1301.66
1586.11
1800.75
1893.76
1554.33
1072.42
606.31
371.011
306.312
294.884
293.241
293.02
293.172
294.451
300.155
322.894
392.93
540.364
756.074
1013.73
1304.93
1592.06
1807.45
1894.5
1533.51
1049.77
589.326
365.608
305.331
294.747
293.224
293.018
293.171
294.444
300.12
322.751
392.543
539.783
755.925
1014.99
1308.7
1597.6
1813.15
1895.04
1516.95
1031.8
576.481
361.426
304.554
294.638
293.21
293.017