/*--------------------------------*- C++ -*----------------------------------*\
  =========                 |
  \\      /  F ield         | OpenFOAM: The Open Source CFD Toolbox
   \\    /   O peration     | Website:  https://openfoam.org
    \\  /    A nd           | Version:  7
     \\/     M anipulation  |
\*---------------------------------------------------------------------------*/
FoamFile
{
    version     2.0;
    format      ascii;
    class       volVectorField;
    location    "0.5";
    object      U;
}
// * * * * * * * * * * * * * * * * * * * * * * * * * * * * * * * * * * * * * //

dimensions      [0 1 -1 0 0 0 0];

internalField   nonuniform List<vector> 
8000
(
(0.0998799 -0.00300571 -0.00300571)
(0.097208 -0.0117716 -0.0117716)
(0.0916187 -0.02625 -0.02625)
(0.0809684 -0.0521599 -0.0521599)
(0.0620465 -0.0893686 -0.0893686)
(0.0347544 -0.122501 -0.122501)
(0.00226476 -0.138935 -0.138935)
(-0.0308102 -0.140426 -0.140426)
(-0.0610105 -0.133333 -0.133333)
(-0.0868403 -0.123545 -0.123545)
(-0.108239 -0.115323 -0.115323)
(-0.121146 -0.112884 -0.112884)
(-0.122804 -0.114107 -0.114107)
(-0.112207 -0.110401 -0.110401)
(-0.0951344 -0.0960563 -0.0960563)
(-0.0829145 -0.066711 -0.066711)
(-0.0869098 -0.0359355 -0.0359355)
(-0.0940771 -0.0176803 -0.0176803)
(-0.09786 -0.00782569 -0.00782569)
(-0.100005 -0.0020239 -0.0020239)
(0.099901 -0.00205793 -0.00624446)
(0.0968322 -0.00835291 -0.0202509)
(0.0907105 -0.018239 -0.0395715)
(0.0799647 -0.0357688 -0.0689174)
(0.0624278 -0.0640589 -0.106252)
(0.0369934 -0.0944958 -0.137444)
(0.00517059 -0.114489 -0.151343)
(-0.0283928 -0.121317 -0.150276)
(-0.0596855 -0.119203 -0.140775)
(-0.086959 -0.113211 -0.12904)
(-0.110363 -0.107052 -0.119825)
(-0.125283 -0.103279 -0.118452)
(-0.127457 -0.0991361 -0.123066)
(-0.115618 -0.0887802 -0.122983)
(-0.0964303 -0.0687572 -0.11216)
(-0.0817934 -0.0416284 -0.0849866)
(-0.0850224 -0.0211938 -0.0535536)
(-0.0929269 -0.0114525 -0.0304935)
(-0.0973885 -0.0053731 -0.0154377)
(-0.100006 -0.00142388 -0.00475395)
(0.0998595 -0.00153073 -0.00904497)
(0.0964775 -0.0064121 -0.0281658)
(0.089709 -0.014369 -0.0518941)
(0.0786296 -0.0292821 -0.0835988)
(0.0624078 -0.0538572 -0.12093)
(0.0390951 -0.080358 -0.151808)
(0.00834918 -0.0988885 -0.16496)
(-0.0256406 -0.106678 -0.162486)
(-0.0584592 -0.106579 -0.151187)
(-0.0879455 -0.102471 -0.137915)
(-0.114007 -0.0972381 -0.128255)
(-0.130889 -0.0926342 -0.128312)
(-0.133265 -0.0858548 -0.13566)
(-0.119729 -0.0736482 -0.137707)
(-0.0978802 -0.0547178 -0.127382)
(-0.080785 -0.032819 -0.0990422)
(-0.0833578 -0.0163486 -0.066623)
(-0.0920898 -0.00837738 -0.0410119)
(-0.0971673 -0.00393445 -0.0217595)
(-0.0999888 -0.00102543 -0.00692402)
(0.0998483 -0.00114487 -0.0112243)
(0.0963826 -0.00493243 -0.0344199)
(0.0894108 -0.0113361 -0.0614072)
(0.0782504 -0.0237093 -0.094442)
(0.062542 -0.0443801 -0.131815)
(0.0400766 -0.0673164 -0.163027)
(0.00985949 -0.0841758 -0.176516)
(-0.0244422 -0.0921337 -0.173852)
(-0.0584734 -0.0931569 -0.161837)
(-0.0898188 -0.090216 -0.14782)
(-0.118036 -0.0855315 -0.138096)
(-0.136013 -0.0805591 -0.139338)
(-0.137894 -0.0727273 -0.148118)
(-0.12225 -0.06034 -0.150491)
(-0.0980298 -0.0431053 -0.138674)
(-0.0800588 -0.0250233 -0.108197)
(-0.0830511 -0.012184 -0.0753932)
(-0.0920122 -0.00617133 -0.0485747)
(-0.0971679 -0.00285926 -0.0264778)
(-0.0999873 -0.000743451 -0.00854663)
(0.0998444 -0.000854851 -0.0128915)
(0.0963819 -0.0037862 -0.0392271)
(0.0893303 -0.00896461 -0.0686892)
(0.0780926 -0.0192781 -0.102782)
(0.0626363 -0.0365756 -0.140385)
(0.0405704 -0.0559402 -0.172054)
(0.0104864 -0.0705175 -0.186089)
(-0.0242318 -0.0778048 -0.183671)
(-0.0592671 -0.0791964 -0.171517)
(-0.0920183 -0.0769489 -0.157253)
(-0.121763 -0.0727537 -0.147625)
(-0.140124 -0.0679175 -0.149668)
(-0.141231 -0.0601571 -0.159037)
(-0.123667 -0.0487734 -0.160847)
(-0.0976902 -0.0339208 -0.147021)
(-0.0795627 -0.0193701 -0.114648)
(-0.0831103 -0.00922936 -0.0816717)
(-0.092147 -0.00457057 -0.0540222)
(-0.0972459 -0.00207252 -0.0299435)
(-0.0999877 -0.000537298 -0.00974385)
(0.0998423 -0.000634695 -0.0141581)
(0.0964074 -0.00287456 -0.0428897)
(0.0893328 -0.00698478 -0.0742384)
(0.0780415 -0.0153442 -0.109182)
(0.0626852 -0.0293969 -0.147056)
(0.0407452 -0.0452342 -0.179191)
(0.010578 -0.057327 -0.193793)
(-0.0245725 -0.0635584 -0.19177)
(-0.0603912 -0.0649316 -0.179747)
(-0.0941341 -0.0631562 -0.165485)
(-0.124887 -0.0595202 -0.155992)
(-0.143202 -0.0552064 -0.158523)
(-0.143507 -0.0482381 -0.167983)
(-0.124352 -0.0384677 -0.168908)
(-0.0971356 -0.0261975 -0.153095)
(-0.0792619 -0.0147985 -0.119272)
(-0.0833043 -0.00691918 -0.0862215)
(-0.0923225 -0.00337518 -0.0579788)
(-0.097329 -0.0014917 -0.0324781)
(-0.099988 -0.000387495 -0.0106212)
(0.099841 -0.000459962 -0.0151025)
(0.0964325 -0.00211767 -0.0456288)
(0.0893475 -0.00525175 -0.0784005)
(0.0780107 -0.0117234 -0.114025)
(0.0626849 -0.022615 -0.152168)
(0.0407479 -0.0349337 -0.184709)
(0.0104161 -0.0444149 -0.199803)
(-0.0251206 -0.0493769 -0.198174)
(-0.0615227 -0.0505335 -0.186367)
(-0.0959367 -0.0491453 -0.172204)
(-0.127326 -0.0461722 -0.162839)
(-0.145399 -0.042627 -0.165666)
(-0.14501 -0.0369367 -0.17492)
(-0.124611 -0.0290993 -0.17498)
(-0.0965651 -0.0195205 -0.157466)
(-0.0790923 -0.010944 -0.122593)
(-0.0834831 -0.00503315 -0.0895166)
(-0.0924696 -0.00242844 -0.0608269)
(-0.0973971 -0.00104921 -0.0343051)
(-0.0999879 -0.000273827 -0.0112536)
(0.0998404 -0.000312985 -0.0157758)
(0.0964508 -0.00145726 -0.0475863)
(0.0893582 -0.0036673 -0.0813844)
(0.0779842 -0.0082774 -0.117521)
(0.0626568 -0.0160411 -0.155892)
(0.0406748 -0.0248399 -0.188751)
(0.0101749 -0.0316466 -0.204229)
(-0.0256657 -0.0352374 -0.202927)
(-0.0624759 -0.0360909 -0.19133)
(-0.0973301 -0.0350776 -0.177279)
(-0.129086 -0.032872 -0.16802)
(-0.14688 -0.0302527 -0.171019)
(-0.14597 -0.0260929 -0.179971)
(-0.124676 -0.0203822 -0.17933)
(-0.0960789 -0.0135474 -0.160523)
(-0.0789666 -0.00752797 -0.124898)
(-0.0836361 -0.00341652 -0.0918099)
(-0.0925834 -0.00163866 -0.0627992)
(-0.0974491 -0.000695639 -0.035572)
(-0.0999876 -0.000182712 -0.0116916)
(0.0998401 -0.000182206 -0.0162096)
(0.0964623 -0.000854233 -0.0488501)
(0.0893636 -0.00217002 -0.0833153)
(0.0779636 -0.00493123 -0.119796)
(0.062628 -0.00958108 -0.158329)
(0.0405932 -0.0148541 -0.1914)
(0.00996013 -0.0189563 -0.20714)
(-0.0260847 -0.0211281 -0.206072)
(-0.0631504 -0.0216464 -0.194631)
(-0.0982741 -0.0210251 -0.180665)
(-0.130213 -0.0196694 -0.171486)
(-0.147789 -0.0180666 -0.174578)
(-0.146546 -0.015549 -0.183262)
(-0.124675 -0.0120814 -0.182141)
(-0.0957317 -0.00798734 -0.162441)
(-0.0788727 -0.0044082 -0.126347)
(-0.0837435 -0.00198267 -0.0932659)
(-0.0926595 -0.00094769 -0.064044)
(-0.0974841 -0.000397344 -0.036372)
(-0.0999875 -0.000104976 -0.0119679)
(0.09984 -5.98771e-05 -0.0164223)
(0.0964677 -0.000281697 -0.0494702)
(0.0893661 -0.00071859 -0.0842646)
(0.0779552 -0.0016379 -0.120917)
(0.0626209 -0.00318529 -0.159531)
(0.0405418 -0.0049398 -0.192701)
(0.00983086 -0.00631262 -0.208581)
(-0.0263104 -0.00703973 -0.207636)
(-0.0634969 -0.00721332 -0.196277)
(-0.0987458 -0.00700377 -0.182358)
(-0.130761 -0.00654674 -0.173221)
(-0.148224 -0.00600722 -0.176354)
(-0.146818 -0.00516622 -0.184881)
(-0.124665 -0.0040033 -0.183521)
(-0.095553 -0.00263954 -0.163368)
(-0.0788239 -0.00145227 -0.127047)
(-0.0837968 -0.00065025 -0.0939745)
(-0.0926971 -0.000310367 -0.0646469)
(-0.0975014 -0.0001294 -0.0367591)
(-0.0999874 -3.42472e-05 -0.0121017)
(0.09984 5.98784e-05 -0.0164223)
(0.0964678 0.000281702 -0.0494702)
(0.0893661 0.000718601 -0.0842646)
(0.0779552 0.00163792 -0.120917)
(0.0626209 0.00318532 -0.159531)
(0.0405418 0.00493983 -0.192701)
(0.00983086 0.00631264 -0.208581)
(-0.0263104 0.00703974 -0.207635)
(-0.0634969 0.00721332 -0.196277)
(-0.0987458 0.00700377 -0.182358)
(-0.130761 0.00654673 -0.173221)
(-0.148224 0.00600721 -0.176354)
(-0.146818 0.00516622 -0.184881)
(-0.124664 0.00400337 -0.183521)
(-0.0955529 0.00263978 -0.163367)
(-0.078824 0.00145252 -0.127047)
(-0.0837969 0.00065038 -0.0939744)
(-0.0926971 0.000310421 -0.0646468)
(-0.0975014 0.000129418 -0.0367591)
(-0.0999874 3.42512e-05 -0.0121017)
(0.0998401 0.000182208 -0.0162096)
(0.0964623 0.000854238 -0.04885)
(0.0893636 0.00217003 -0.0833153)
(0.0779637 0.00493125 -0.119796)
(0.0626281 0.00958111 -0.158329)
(0.0405932 0.0148541 -0.1914)
(0.00996014 0.0189563 -0.20714)
(-0.0260847 0.0211281 -0.206072)
(-0.0631504 0.0216464 -0.194631)
(-0.0982741 0.0210251 -0.180665)
(-0.130213 0.0196694 -0.171486)
(-0.147789 0.0180666 -0.174578)
(-0.146546 0.0155491 -0.183262)
(-0.124675 0.0120815 -0.182141)
(-0.0957315 0.00798742 -0.162441)
(-0.0788727 0.00440826 -0.126346)
(-0.0837436 0.00198271 -0.0932658)
(-0.0926595 0.000947712 -0.0640439)
(-0.0974841 0.000397352 -0.036372)
(-0.0999875 0.000104978 -0.0119679)
(0.0998404 0.000312986 -0.0157758)
(0.0964508 0.00145726 -0.0475863)
(0.0893582 0.00366731 -0.0813843)
(0.0779842 0.00827741 -0.117521)
(0.0626568 0.0160411 -0.155892)
(0.0406748 0.0248399 -0.188751)
(0.0101749 0.0316466 -0.204229)
(-0.0256657 0.0352374 -0.202927)
(-0.0624759 0.0360909 -0.19133)
(-0.0973301 0.0350776 -0.177279)
(-0.129086 0.032872 -0.16802)
(-0.14688 0.0302527 -0.171019)
(-0.14597 0.0260929 -0.179971)
(-0.124676 0.0203822 -0.17933)
(-0.0960788 0.0135474 -0.160523)
(-0.0789666 0.00752791 -0.124897)
(-0.0836362 0.00341651 -0.0918098)
(-0.0925834 0.00163866 -0.0627991)
(-0.0974491 0.000695641 -0.035572)
(-0.0999876 0.000182713 -0.0116916)
(0.099841 0.000459963 -0.0151025)
(0.0964325 0.00211767 -0.0456288)
(0.0893475 0.00525176 -0.0784005)
(0.0780107 0.0117234 -0.114025)
(0.062685 0.022615 -0.152168)
(0.040748 0.0349337 -0.184709)
(0.0104161 0.0444149 -0.199803)
(-0.0251206 0.0493769 -0.198174)
(-0.0615226 0.0505334 -0.186367)
(-0.0959367 0.0491453 -0.172204)
(-0.127326 0.0461722 -0.162839)
(-0.145399 0.042627 -0.165666)
(-0.14501 0.0369367 -0.17492)
(-0.124611 0.0290993 -0.17498)
(-0.096565 0.0195205 -0.157466)
(-0.0790923 0.010944 -0.122593)
(-0.0834832 0.00503313 -0.0895165)
(-0.0924696 0.00242844 -0.0608268)
(-0.0973971 0.00104921 -0.0343051)
(-0.0999879 0.000273828 -0.0112536)
(0.0998423 0.000634696 -0.0141581)
(0.0964074 0.00287456 -0.0428897)
(0.0893328 0.00698479 -0.0742383)
(0.0780415 0.0153443 -0.109182)
(0.0626852 0.0293969 -0.147056)
(0.0407452 0.0452342 -0.179191)
(0.0105781 0.057327 -0.193793)
(-0.0245725 0.0635584 -0.19177)
(-0.0603912 0.0649316 -0.179747)
(-0.0941341 0.0631562 -0.165485)
(-0.124887 0.0595202 -0.155992)
(-0.143202 0.0552064 -0.158523)
(-0.143507 0.048238 -0.167983)
(-0.124352 0.0384677 -0.168908)
(-0.0971355 0.0261974 -0.153095)
(-0.0792619 0.0147985 -0.119272)
(-0.0833043 0.00691917 -0.0862214)
(-0.0923225 0.00337518 -0.0579787)
(-0.097329 0.00149169 -0.0324781)
(-0.099988 0.000387496 -0.0106212)
(0.0998444 0.000854852 -0.0128915)
(0.0963819 0.0037862 -0.0392271)
(0.0893303 0.00896461 -0.0686892)
(0.0780926 0.0192781 -0.102782)
(0.0626364 0.0365756 -0.140384)
(0.0405704 0.0559402 -0.172054)
(0.0104865 0.0705175 -0.186089)
(-0.0242318 0.0778048 -0.183671)
(-0.0592671 0.0791964 -0.171517)
(-0.0920183 0.0769489 -0.157253)
(-0.121763 0.0727537 -0.147625)
(-0.140124 0.0679175 -0.149668)
(-0.141231 0.060157 -0.159037)
(-0.123667 0.0487733 -0.160847)
(-0.0976901 0.0339208 -0.14702)
(-0.0795626 0.01937 -0.114648)
(-0.0831103 0.00922934 -0.0816716)
(-0.0921471 0.00457056 -0.0540221)
(-0.0972459 0.00207252 -0.0299435)
(-0.0999877 0.000537298 -0.00974384)
(0.0998483 0.00114487 -0.0112243)
(0.0963826 0.00493243 -0.0344199)
(0.0894108 0.0113361 -0.0614072)
(0.0782504 0.0237093 -0.0944419)
(0.0625421 0.04438 -0.131815)
(0.0400766 0.0673163 -0.163027)
(0.00985955 0.0841758 -0.176516)
(-0.0244421 0.0921337 -0.173852)
(-0.0584733 0.0931569 -0.161837)
(-0.0898188 0.090216 -0.14782)
(-0.118036 0.0855315 -0.138096)
(-0.136013 0.0805591 -0.139338)
(-0.137894 0.0727273 -0.148118)
(-0.12225 0.06034 -0.150491)
(-0.0980297 0.0431053 -0.138674)
(-0.0800587 0.0250233 -0.108197)
(-0.0830511 0.012184 -0.0753931)
(-0.0920122 0.00617132 -0.0485746)
(-0.0971679 0.00285926 -0.0264778)
(-0.0999873 0.000743451 -0.00854661)
(0.0998595 0.00153073 -0.00904496)
(0.0964775 0.00641209 -0.0281657)
(0.0897091 0.014369 -0.0518941)
(0.0786296 0.0292821 -0.0835987)
(0.0624078 0.0538571 -0.12093)
(0.0390952 0.080358 -0.151807)
(0.00834924 0.0988885 -0.16496)
(-0.0256405 0.106678 -0.162486)
(-0.0584591 0.106579 -0.151187)
(-0.0879455 0.102471 -0.137915)
(-0.114007 0.0972381 -0.128255)
(-0.130889 0.0926342 -0.128312)
(-0.133264 0.0858548 -0.13566)
(-0.119729 0.0736482 -0.137707)
(-0.0978801 0.0547178 -0.127382)
(-0.0807849 0.032819 -0.0990421)
(-0.0833578 0.0163486 -0.0666229)
(-0.0920898 0.00837737 -0.0410118)
(-0.0971673 0.00393444 -0.0217594)
(-0.0999888 0.00102543 -0.006924)
(0.099901 0.00205793 -0.00624446)
(0.0968322 0.00835291 -0.0202509)
(0.0907106 0.018239 -0.0395715)
(0.0799648 0.0357688 -0.0689173)
(0.0624279 0.0640588 -0.106252)
(0.0369934 0.0944958 -0.137444)
(0.00517066 0.114489 -0.151343)
(-0.0283928 0.121317 -0.150276)
(-0.0596854 0.119203 -0.140775)
(-0.086959 0.113211 -0.12904)
(-0.110363 0.107052 -0.119825)
(-0.125283 0.103279 -0.118452)
(-0.127456 0.0991361 -0.123066)
(-0.115618 0.0887802 -0.122983)
(-0.0964302 0.0687572 -0.11216)
(-0.0817933 0.0416283 -0.0849865)
(-0.0850224 0.0211937 -0.0535535)
(-0.0929269 0.0114525 -0.0304934)
(-0.0973885 0.00537309 -0.0154376)
(-0.100006 0.00142388 -0.00475394)
(0.0998799 0.00300571 -0.00300571)
(0.097208 0.0117716 -0.0117716)
(0.0916187 0.02625 -0.02625)
(0.0809684 0.0521598 -0.0521598)
(0.0620465 0.0893685 -0.0893685)
(0.0347545 0.122501 -0.122501)
(0.00226483 0.138935 -0.138935)
(-0.0308101 0.140426 -0.140426)
(-0.0610105 0.133333 -0.133333)
(-0.0868402 0.123545 -0.123545)
(-0.108239 0.115323 -0.115323)
(-0.121146 0.112884 -0.112884)
(-0.122804 0.114107 -0.114107)
(-0.112207 0.110401 -0.110401)
(-0.0951343 0.0960562 -0.0960562)
(-0.0829145 0.0667109 -0.0667109)
(-0.0869098 0.0359354 -0.0359354)
(-0.0940771 0.0176803 -0.0176803)
(-0.09786 0.00782567 -0.00782567)
(-0.100005 0.0020239 -0.0020239)
(0.099901 -0.00624446 -0.00205793)
(0.0968322 -0.0202509 -0.00835291)
(0.0907105 -0.0395715 -0.018239)
(0.0799647 -0.0689174 -0.0357688)
(0.0624278 -0.106252 -0.0640589)
(0.0369934 -0.137444 -0.0944958)
(0.00517059 -0.151343 -0.114489)
(-0.0283928 -0.150276 -0.121317)
(-0.0596855 -0.140775 -0.119203)
(-0.086959 -0.12904 -0.113211)
(-0.110363 -0.119825 -0.107052)
(-0.125283 -0.118452 -0.103279)
(-0.127457 -0.123066 -0.0991361)
(-0.115618 -0.122983 -0.0887802)
(-0.0964303 -0.11216 -0.0687572)
(-0.0817934 -0.0849866 -0.0416284)
(-0.0850224 -0.0535536 -0.0211938)
(-0.0929269 -0.0304935 -0.0114525)
(-0.0973885 -0.0154377 -0.0053731)
(-0.100006 -0.00475395 -0.00142388)
(0.0999706 -0.00466131 -0.00466131)
(0.096386 -0.015239 -0.015239)
(0.0895527 -0.0289737 -0.0289737)
(0.0788173 -0.0490625 -0.0490625)
(0.0631576 -0.0774018 -0.0774018)
(0.0401202 -0.10644 -0.10644)
(0.00921535 -0.124798 -0.124798)
(-0.0249088 -0.129934 -0.129934)
(-0.0575361 -0.126168 -0.126168)
(-0.0866491 -0.118864 -0.118864)
(-0.112868 -0.112157 -0.112157)
(-0.130672 -0.109211 -0.109211)
(-0.13364 -0.107314 -0.107314)
(-0.120467 -0.0992774 -0.0992774)
(-0.0986326 -0.0813696 -0.0813696)
(-0.0807517 -0.0556258 -0.0556258)
(-0.0825049 -0.0345339 -0.0345339)
(-0.0911849 -0.021519 -0.021519)
(-0.0966759 -0.0114686 -0.0114686)
(-0.100013 -0.00360717 -0.00360717)
(0.0999397 -0.00363078 -0.00704031)
(0.0959673 -0.0121035 -0.0218869)
(0.0883704 -0.0235042 -0.0389818)
(0.0773816 -0.0409482 -0.0605333)
(0.0632684 -0.0655286 -0.0890133)
(0.0427377 -0.0909155 -0.117712)
(0.0132549 -0.108045 -0.135928)
(-0.0212369 -0.1145 -0.14048)
(-0.0556109 -0.113155 -0.13571)
(-0.0874203 -0.108086 -0.127477)
(-0.117163 -0.102488 -0.120552)
(-0.137582 -0.0985082 -0.118615)
(-0.141008 -0.0934093 -0.118276)
(-0.125745 -0.0828063 -0.11131)
(-0.100465 -0.0654911 -0.0929857)
(-0.0796537 -0.0445246 -0.066365)
(-0.0806575 -0.0274909 -0.0444979)
(-0.0900376 -0.0165666 -0.0299356)
(-0.0963378 -0.00875297 -0.016835)
(-0.0999934 -0.00274013 -0.00547039)
(0.0999463 -0.00280795 -0.00897677)
(0.0959067 -0.00953226 -0.0273224)
(0.0881283 -0.0188509 -0.0469449)
(0.0771256 -0.0332248 -0.0696135)
(0.0635573 -0.0538741 -0.0982007)
(0.0440331 -0.0760209 -0.126951)
(0.0152651 -0.0918561 -0.145618)
(-0.0194893 -0.0988626 -0.150357)
(-0.0552303 -0.0989958 -0.145352)
(-0.0892739 -0.095361 -0.13677)
(-0.121832 -0.0904086 -0.129874)
(-0.143674 -0.0859278 -0.128669)
(-0.146759 -0.0791593 -0.128957)
(-0.128938 -0.0678565 -0.121704)
(-0.100756 -0.0517411 -0.101803)
(-0.0790281 -0.0343091 -0.0741704)
(-0.0803911 -0.0209412 -0.0519599)
(-0.0899076 -0.0126658 -0.0363822)
(-0.0963139 -0.00658058 -0.021067)
(-0.0999949 -0.00205933 -0.00694048)
(0.0999549 -0.00215084 -0.0105117)
(0.0959443 -0.00744595 -0.0316373)
(0.0880948 -0.015066 -0.0532542)
(0.0770477 -0.027004 -0.0769122)
(0.063765 -0.0443032 -0.105677)
(0.0447634 -0.0630863 -0.134605)
(0.0162455 -0.0768767 -0.153816)
(-0.0189189 -0.0834575 -0.158986)
(-0.0558003 -0.0841939 -0.154118)
(-0.0915362 -0.0814313 -0.145519)
(-0.126101 -0.077025 -0.138744)
(-0.148525 -0.0725623 -0.137967)
(-0.15086 -0.0654676 -0.13832)
(-0.130766 -0.054869 -0.130173)
(-0.100469 -0.0408683 -0.10851)
(-0.0786209 -0.0268151 -0.0801526)
(-0.0804243 -0.0161106 -0.0576919)
(-0.0900237 -0.00962292 -0.0413243)
(-0.0963929 -0.0048968 -0.0243138)
(-0.0999969 -0.00152797 -0.0080728)
(0.0999605 -0.00162483 -0.0117062)
(0.0959992 -0.00571948 -0.0350012)
(0.0881375 -0.0118056 -0.058179)
(0.077067 -0.0214409 -0.0826479)
(0.0639004 -0.035504 -0.11162)
(0.0451039 -0.0509251 -0.140777)
(0.0165783 -0.0624316 -0.160517)
(-0.0190272 -0.0681467 -0.166172)
(-0.0568016 -0.0690403 -0.161588)
(-0.0937392 -0.0668825 -0.153123)
(-0.129652 -0.0630794 -0.14648)
(-0.15215 -0.0590396 -0.145921)
(-0.153644 -0.0524754 -0.146015)
(-0.131704 -0.0432817 -0.136806)
(-0.0998995 -0.0316913 -0.113508)
(-0.0784 -0.0206166 -0.0846785)
(-0.0805849 -0.0121703 -0.0620209)
(-0.0902057 -0.0072075 -0.0450661)
(-0.0964832 -0.00359127 -0.0267635)
(-0.0999982 -0.00111961 -0.00892818)
(0.0999639 -0.00119005 -0.0126101)
(0.0960436 -0.00424322 -0.037553)
(0.0881799 -0.00889877 -0.0619261)
(0.077086 -0.0163352 -0.0870425)
(0.063962 -0.0272458 -0.116224)
(0.0452255 -0.0392736 -0.145606)
(0.016585 -0.0483298 -0.165797)
(-0.0194218 -0.0529217 -0.171889)
(-0.0578645 -0.0537348 -0.167607)
(-0.0956231 -0.0520706 -0.159315)
(-0.132414 -0.0489719 -0.152786)
(-0.154744 -0.0456262 -0.152321)
(-0.155487 -0.0401555 -0.152039)
(-0.132153 -0.0327524 -0.141855)
(-0.0992935 -0.0237183 -0.117182)
(-0.0782228 -0.0153049 -0.088021)
(-0.0807549 -0.0088852 -0.0652282)
(-0.0903777 -0.00522893 -0.0478305)
(-0.0965626 -0.00255983 -0.0285677)
(-0.0999989 -0.000798331 -0.00955769)
(0.0999661 -0.000814668 -0.01326)
(0.0960732 -0.00293161 -0.039392)
(0.0882075 -0.00621975 -0.0646348)
(0.0770922 -0.011506 -0.0902374)
(0.0639757 -0.0192897 -0.119598)
(0.0452345 -0.0278972 -0.149171)
(0.0164593 -0.0344133 -0.169709)
(-0.0198655 -0.0377573 -0.176148)
(-0.0587769 -0.0383782 -0.172124)
(-0.0970706 -0.0371793 -0.16399)
(-0.134412 -0.0348872 -0.157547)
(-0.156511 -0.0324079 -0.157108)
(-0.156675 -0.0283393 -0.156469)
(-0.13235 -0.0229438 -0.145514)
(-0.0987666 -0.0164704 -0.11977)
(-0.0780662 -0.0105606 -0.0903914)
(-0.0808974 -0.00605997 -0.0675151)
(-0.0905068 -0.00355132 -0.0497876)
(-0.096622 -0.00171423 -0.0298369)
(-0.0999991 -0.000535232 -0.00999995)
(0.0999673 -0.000475791 -0.0136806)
(0.0960904 -0.00172227 -0.0405847)
(0.0882212 -0.00368154 -0.0663961)
(0.0770894 -0.0068449 -0.092324)
(0.0639694 -0.0115118 -0.121817)
(0.045207 -0.0166769 -0.151529)
(0.0163184 -0.0206041 -0.172297)
(-0.0202218 -0.0226358 -0.178971)
(-0.0594247 -0.0230186 -0.175129)
(-0.0980394 -0.0222905 -0.167111)
(-0.135699 -0.0208854 -0.160724)
(-0.157612 -0.0193663 -0.160281)
(-0.157388 -0.0168674 -0.159365)
(-0.132414 -0.0135917 -0.147866)
(-0.0983805 -0.0096825 -0.121425)
(-0.0779712 -0.00618734 -0.0919164)
(-0.0810008 -0.0035272 -0.0689903)
(-0.0905916 -0.00206219 -0.0510423)
(-0.0966603 -0.000985916 -0.0306457)
(-0.0999991 -0.000308233 -0.0102815)
(0.0999679 -0.000156542 -0.0138874)
(0.096098 -0.000568286 -0.0411716)
(0.088226 -0.00121927 -0.0672645)
(0.077085 -0.00227261 -0.0933562)
(0.0639615 -0.00382756 -0.122922)
(0.0451836 -0.00554734 -0.152715)
(0.0162326 -0.00685984 -0.173589)
(-0.0204163 -0.00754142 -0.180378)
(-0.0597573 -0.00767056 -0.17663)
(-0.0985209 -0.00742607 -0.168671)
(-0.136313 -0.00695386 -0.162312)
(-0.158156 -0.00644174 -0.16186)
(-0.157725 -0.00559935 -0.160794)
(-0.132429 -0.00450139 -0.149016)
(-0.0981811 -0.00319394 -0.122233)
(-0.0779281 -0.00203775 -0.0926641)
(-0.0810549 -0.00115802 -0.0697142)
(-0.0906339 -0.000676417 -0.0516554)
(-0.096679 -0.000321841 -0.0310395)
(-0.0999992 -0.000100701 -0.0104184)
(0.0999679 0.000156545 -0.0138874)
(0.096098 0.000568294 -0.0411715)
(0.088226 0.00121928 -0.0672645)
(0.077085 0.00227264 -0.0933562)
(0.0639615 0.00382759 -0.122922)
(0.0451836 0.00554737 -0.152715)
(0.0162326 0.00685986 -0.173589)
(-0.0204163 0.00754143 -0.180378)
(-0.0597573 0.00767057 -0.17663)
(-0.0985209 0.00742607 -0.168671)
(-0.136313 0.00695386 -0.162312)
(-0.158156 0.00644175 -0.16186)
(-0.157724 0.0055994 -0.160794)
(-0.132429 0.00450157 -0.149016)
(-0.0981811 0.00319426 -0.122233)
(-0.0779281 0.00203797 -0.0926641)
(-0.081055 0.00115812 -0.0697143)
(-0.0906339 0.000676466 -0.0516554)
(-0.096679 0.000321862 -0.0310395)
(-0.0999992 0.000100708 -0.0104184)
(0.0999673 0.000475793 -0.0136806)
(0.0960904 0.00172228 -0.0405847)
(0.0882212 0.00368156 -0.0663961)
(0.0770894 0.00684493 -0.092324)
(0.0639694 0.0115118 -0.121817)
(0.045207 0.0166769 -0.151529)
(0.0163184 0.0206041 -0.172297)
(-0.0202218 0.0226359 -0.178971)
(-0.0594247 0.0230186 -0.175129)
(-0.0980394 0.0222905 -0.167111)
(-0.135699 0.0208854 -0.160724)
(-0.157612 0.0193663 -0.160281)
(-0.157388 0.0168675 -0.159365)
(-0.132413 0.0135918 -0.147866)
(-0.0983805 0.0096826 -0.121425)
(-0.0779713 0.00618742 -0.0919163)
(-0.0810009 0.00352726 -0.0689903)
(-0.0905916 0.00206222 -0.0510423)
(-0.0966603 0.000985931 -0.0306457)
(-0.0999991 0.000308239 -0.0102814)
(0.0999661 0.00081467 -0.01326)
(0.0960732 0.00293162 -0.039392)
(0.0882075 0.00621976 -0.0646348)
(0.0770922 0.011506 -0.0902374)
(0.0639757 0.0192897 -0.119598)
(0.0452345 0.0278972 -0.149171)
(0.0164593 0.0344133 -0.169709)
(-0.0198655 0.0377573 -0.176147)
(-0.0587769 0.0383782 -0.172124)
(-0.0970706 0.0371793 -0.16399)
(-0.134412 0.0348872 -0.157547)
(-0.156511 0.0324079 -0.157108)
(-0.156675 0.0283394 -0.156469)
(-0.13235 0.0229438 -0.145514)
(-0.0987666 0.0164703 -0.11977)
(-0.0780663 0.0105606 -0.0903914)
(-0.0808975 0.00606 -0.067515)
(-0.0905068 0.00355134 -0.0497876)
(-0.096622 0.00171424 -0.0298369)
(-0.0999991 0.000535236 -0.00999994)
(0.0999639 0.00119005 -0.0126101)
(0.0960436 0.00424322 -0.037553)
(0.0881799 0.00889878 -0.0619261)
(0.077086 0.0163352 -0.0870425)
(0.063962 0.0272458 -0.116224)
(0.0452255 0.0392736 -0.145606)
(0.0165851 0.0483298 -0.165797)
(-0.0194218 0.0529217 -0.171889)
(-0.0578644 0.0537348 -0.167607)
(-0.095623 0.0520706 -0.159315)
(-0.132414 0.0489719 -0.152786)
(-0.154744 0.0456262 -0.152321)
(-0.155487 0.0401555 -0.152039)
(-0.132153 0.0327523 -0.141855)
(-0.0992934 0.0237182 -0.117182)
(-0.0782228 0.0153049 -0.0880209)
(-0.0807549 0.00888522 -0.0652282)
(-0.0903777 0.00522895 -0.0478304)
(-0.0965627 0.00255984 -0.0285677)
(-0.0999989 0.000798334 -0.00955768)
(0.0999605 0.00162484 -0.0117062)
(0.0959992 0.00571948 -0.0350012)
(0.0881375 0.0118056 -0.058179)
(0.077067 0.0214409 -0.0826479)
(0.0639004 0.035504 -0.11162)
(0.045104 0.0509251 -0.140777)
(0.0165784 0.0624316 -0.160517)
(-0.0190272 0.0681467 -0.166172)
(-0.0568015 0.0690403 -0.161588)
(-0.0937392 0.0668825 -0.153123)
(-0.129652 0.0630794 -0.14648)
(-0.152149 0.0590395 -0.145921)
(-0.153644 0.0524754 -0.146015)
(-0.131703 0.0432816 -0.136806)
(-0.0998994 0.0316913 -0.113507)
(-0.0783999 0.0206166 -0.0846784)
(-0.0805849 0.0121703 -0.0620209)
(-0.0902057 0.0072075 -0.045066)
(-0.0964832 0.00359127 -0.0267635)
(-0.0999982 0.00111961 -0.00892817)
(0.0999549 0.00215084 -0.0105117)
(0.0959443 0.00744595 -0.0316373)
(0.0880948 0.015066 -0.0532542)
(0.0770477 0.027004 -0.0769121)
(0.063765 0.0443032 -0.105677)
(0.0447634 0.0630863 -0.134605)
(0.0162456 0.0768766 -0.153816)
(-0.0189188 0.0834575 -0.158986)
(-0.0558003 0.0841939 -0.154118)
(-0.0915362 0.0814313 -0.145519)
(-0.126101 0.077025 -0.138744)
(-0.148525 0.0725622 -0.137967)
(-0.150859 0.0654676 -0.13832)
(-0.130766 0.054869 -0.130173)
(-0.100468 0.0408682 -0.10851)
(-0.0786208 0.0268151 -0.0801525)
(-0.0804243 0.0161106 -0.0576919)
(-0.0900237 0.00962291 -0.0413243)
(-0.0963929 0.0048968 -0.0243138)
(-0.0999969 0.00152797 -0.00807279)
(0.0999463 0.00280795 -0.00897676)
(0.0959067 0.00953226 -0.0273224)
(0.0881283 0.0188509 -0.0469448)
(0.0771256 0.0332248 -0.0696134)
(0.0635573 0.0538741 -0.0982007)
(0.0440332 0.0760209 -0.126951)
(0.0152652 0.0918561 -0.145618)
(-0.0194893 0.0988626 -0.150357)
(-0.0552302 0.0989957 -0.145352)
(-0.0892738 0.095361 -0.13677)
(-0.121832 0.0904086 -0.129874)
(-0.143674 0.0859278 -0.128669)
(-0.146759 0.0791593 -0.128957)
(-0.128937 0.0678565 -0.121704)
(-0.100756 0.0517411 -0.101803)
(-0.0790281 0.0343091 -0.0741703)
(-0.0803911 0.0209411 -0.0519599)
(-0.0899076 0.0126657 -0.0363822)
(-0.0963139 0.00658057 -0.021067)
(-0.0999949 0.00205933 -0.00694047)
(0.0999397 0.00363078 -0.0070403)
(0.0959674 0.0121035 -0.0218869)
(0.0883704 0.0235042 -0.0389818)
(0.0773816 0.0409481 -0.0605332)
(0.0632685 0.0655285 -0.0890133)
(0.0427378 0.0909155 -0.117712)
(0.0132549 0.108045 -0.135928)
(-0.0212368 0.1145 -0.14048)
(-0.0556108 0.113155 -0.13571)
(-0.0874202 0.108086 -0.127477)
(-0.117163 0.102488 -0.120552)
(-0.137582 0.0985082 -0.118615)
(-0.141008 0.0934093 -0.118276)
(-0.125745 0.0828063 -0.11131)
(-0.100465 0.0654911 -0.0929856)
(-0.0796536 0.0445245 -0.0663649)
(-0.0806575 0.0274908 -0.0444978)
(-0.0900376 0.0165666 -0.0299356)
(-0.0963378 0.00875297 -0.016835)
(-0.0999934 0.00274012 -0.00547038)
(0.0999706 0.00466131 -0.00466131)
(0.096386 0.015239 -0.015239)
(0.0895527 0.0289737 -0.0289737)
(0.0788173 0.0490624 -0.0490624)
(0.0631576 0.0774018 -0.0774018)
(0.0401202 0.10644 -0.10644)
(0.00921541 0.124798 -0.124798)
(-0.0249088 0.129934 -0.129934)
(-0.057536 0.126168 -0.126168)
(-0.086649 0.118864 -0.118864)
(-0.112868 0.112157 -0.112157)
(-0.130672 0.109211 -0.109211)
(-0.13364 0.107314 -0.107314)
(-0.120467 0.0992773 -0.0992773)
(-0.0986325 0.0813695 -0.0813695)
(-0.0807516 0.0556258 -0.0556258)
(-0.0825048 0.0345338 -0.0345338)
(-0.0911849 0.021519 -0.021519)
(-0.0966759 0.0114686 -0.0114686)
(-0.100013 0.00360716 -0.00360716)
(0.099901 0.00624446 -0.00205793)
(0.0968322 0.0202509 -0.00835291)
(0.0907106 0.0395715 -0.018239)
(0.0799648 0.0689173 -0.0357688)
(0.0624279 0.106252 -0.0640588)
(0.0369934 0.137444 -0.0944958)
(0.00517066 0.151343 -0.114489)
(-0.0283928 0.150276 -0.121317)
(-0.0596854 0.140775 -0.119203)
(-0.0869589 0.12904 -0.113211)
(-0.110363 0.119825 -0.107052)
(-0.125283 0.118452 -0.103279)
(-0.127456 0.123066 -0.0991361)
(-0.115618 0.122983 -0.0887802)
(-0.0964302 0.11216 -0.0687572)
(-0.0817933 0.0849865 -0.0416283)
(-0.0850225 0.0535535 -0.0211937)
(-0.0929269 0.0304934 -0.0114525)
(-0.0973885 0.0154376 -0.00537308)
(-0.100006 0.00475394 -0.00142388)
(0.0998595 -0.00904497 -0.00153073)
(0.0964775 -0.0281658 -0.0064121)
(0.089709 -0.0518941 -0.014369)
(0.0786296 -0.0835988 -0.0292821)
(0.0624078 -0.12093 -0.0538572)
(0.0390951 -0.151808 -0.080358)
(0.00834918 -0.16496 -0.0988885)
(-0.0256406 -0.162486 -0.106678)
(-0.0584592 -0.151187 -0.106579)
(-0.0879455 -0.137915 -0.102471)
(-0.114007 -0.128255 -0.0972381)
(-0.130889 -0.128312 -0.0926342)
(-0.133265 -0.13566 -0.0858548)
(-0.119729 -0.137707 -0.0736482)
(-0.0978802 -0.127382 -0.0547178)
(-0.080785 -0.0990422 -0.032819)
(-0.0833578 -0.066623 -0.0163486)
(-0.0920898 -0.0410119 -0.00837738)
(-0.0971673 -0.0217595 -0.00393445)
(-0.0999888 -0.00692402 -0.00102543)
(0.0999397 -0.00704031 -0.00363078)
(0.0959673 -0.0218869 -0.0121035)
(0.0883704 -0.0389818 -0.0235042)
(0.0773816 -0.0605333 -0.0409482)
(0.0632684 -0.0890133 -0.0655286)
(0.0427377 -0.117712 -0.0909155)
(0.0132549 -0.135928 -0.108045)
(-0.0212369 -0.14048 -0.1145)
(-0.0556109 -0.13571 -0.113155)
(-0.0874203 -0.127477 -0.108086)
(-0.117163 -0.120552 -0.102488)
(-0.137582 -0.118615 -0.0985082)
(-0.141008 -0.118276 -0.0934093)
(-0.125745 -0.11131 -0.0828063)
(-0.100465 -0.0929857 -0.0654911)
(-0.0796537 -0.066365 -0.0445246)
(-0.0806575 -0.0444979 -0.0274909)
(-0.0900376 -0.0299356 -0.0165666)
(-0.0963378 -0.016835 -0.00875297)
(-0.0999934 -0.00547039 -0.00274013)
(0.0998894 -0.00562947 -0.00562947)
(0.0954274 -0.0177208 -0.0177208)
(0.0870093 -0.0320478 -0.0320478)
(0.0759393 -0.0509165 -0.0509165)
(0.0635241 -0.0756224 -0.0756224)
(0.0456932 -0.100758 -0.100758)
(0.0179684 -0.117751 -0.117751)
(-0.016779 -0.123845 -0.123845)
(-0.053119 -0.121862 -0.121862)
(-0.0881673 -0.11619 -0.11619)
(-0.122295 -0.110471 -0.110471)
(-0.145886 -0.107199 -0.107199)
(-0.149882 -0.102974 -0.102974)
(-0.131934 -0.0929594 -0.0929594)
(-0.102472 -0.0752819 -0.0752819)
(-0.0787786 -0.0537784 -0.0537784)
(-0.0788497 -0.0358907 -0.0358907)
(-0.0887275 -0.0235498 -0.0235498)
(-0.0958765 -0.0131735 -0.0131735)
(-0.0999728 -0.00428507 -0.00428507)
(0.0998888 -0.00444116 -0.00731719)
(0.0953221 -0.0141371 -0.0224536)
(0.0867706 -0.025818 -0.0390557)
(0.0757935 -0.0413171 -0.0589717)
(0.0639443 -0.0620949 -0.0837957)
(0.0471693 -0.0840879 -0.109033)
(0.0203269 -0.0999693 -0.126333)
(-0.0146001 -0.106867 -0.132632)
(-0.0524584 -0.106647 -0.130588)
(-0.0901549 -0.102635 -0.124752)
(-0.12773 -0.0976029 -0.119079)
(-0.15305 -0.0935973 -0.116273)
(-0.156639 -0.0872126 -0.112169)
(-0.1356 -0.076118 -0.101787)
(-0.102664 -0.0595023 -0.0829067)
(-0.0785423 -0.041858 -0.0609095)