/*--------------------------------*- C++ -*----------------------------------*\
  =========                 |
  \\      /  F ield         | OpenFOAM: The Open Source CFD Toolbox
   \\    /   O peration     | Website:  https://openfoam.org
    \\  /    A nd           | Version:  7
     \\/     M anipulation  |
\*---------------------------------------------------------------------------*/
FoamFile
{
    version     2.0;
    format      ascii;
    class       volScalarField;
    location    "0.5/newMesh";
    object      H2O;
}
// * * * * * * * * * * * * * * * * * * * * * * * * * * * * * * * * * * * * * //

dimensions      [0 0 0 0 0 0 0];

internalField   nonuniform List<scalar> 
8000
(
0.2
2.08289e-06
2.06632e-06
2.04057e-06
2.01768e-06
2.00041e-06
1.99102e-06
1.98723e-06
1.98669e-06
1.98725e-06
1.98725e-06
1.98669e-06
1.98723e-06
1.99101e-06
2.00041e-06
2.01767e-06
2.04057e-06
2.06632e-06
2.08289e-06
2.09854e-06
2.89192e-05
2.86578e-05
2.84087e-05
2.80382e-05
2.77216e-05
2.74823e-05
2.73586e-05
2.73119e-05
2.73086e-05
2.73187e-05
2.73186e-05
2.73086e-05
2.73119e-05
2.73585e-05
2.74823e-05
2.77215e-05
2.80381e-05
2.84087e-05
2.86578e-05
2.89192e-05
0.00022546
0.000222339
0.000219751
0.000216577
0.000214109
0.000212221
0.000211374
0.000211116
0.000211169
0.000211281
0.000211281
0.000211169
0.000211115
0.000211374
0.00021222
0.000214108
0.000216576
0.00021975
0.000222338
0.00022546
0.00151153
0.00147798
0.0014507
0.00142678
0.00141043
0.00139721
0.00139283
0.00139204
0.001393
0.00139393
0.00139393
0.00139299
0.00139203
0.00139282
0.0013972
0.00141043
0.00142677
0.00145069
0.00147797
0.00151152
0.00773595
0.00751697
0.00732078
0.00719437
0.00711879
0.00707706
0.00706833
0.00707119
0.00707993
0.00708375
0.00708375
0.00707992
0.00707118
0.00706831
0.00707703
0.00711877
0.00719434
0.00732075
0.00751693
0.00773591
0.0255096
0.0249003
0.024362
0.0240316
0.0238613
0.0237916
0.0237809
0.0238031
0.0238263
0.0237744
0.0237744
0.0238263
0.023803
0.0237809
0.0237915
0.0238612
0.0240315
0.0243619
0.0249002
0.0255095
0.0510916
0.050473
0.0498881
0.049564
0.04943
0.0494062
0.0494528
0.0495258
0.0495909
0.0496215
0.0496215
0.0495909
0.0495258
0.0494528
0.0494061
0.0494299
0.049564
0.049888
0.0504729
0.0510915
0.0747866
0.0744134
0.0740833
0.0739282
0.0739109
0.0739905
0.074113
0.0742365
0.0743325
0.0743827
0.0743827
0.0743325
0.0742363
0.074113
0.0739905
0.0739109
0.0739281
0.0740832
0.0744132
0.0747865
0.0930069
0.0928867
0.092816
0.0928454
0.0929616
0.0931228
0.0932904
0.0934363
0.0935417
0.0935956
0.0935955
0.0935417
0.0934362
0.0932904
0.0931227
0.0929615
0.0928451
0.092816
0.0928866
0.0930068
0.105193
0.105185
0.105215
0.105298
0.105416
0.105546
0.10567
0.105772
0.105844
0.10588
0.10588
0.105844
0.105772
0.10567
0.105546
0.105416
0.105298
0.105215
0.105184
0.105193
0.110826
0.110777
0.110719
0.110678
0.110659
0.110656
0.110666
0.110679
0.110689
0.110695
0.110695
0.110689
0.110678
0.110666
0.110656
0.110659
0.110678
0.110719
0.110776
0.110826
0.108862
0.108466
0.107897
0.107322
0.106818
0.106412
0.106102
0.105881
0.105739
0.10567
0.10567
0.105738
0.10588
0.106102
0.106411
0.106818
0.107322
0.107897
0.108466
0.108862
0.0868536
0.0853552
0.0832122
0.0810371
0.07912
0.0775533
0.0763439
0.075472
0.0749067
0.074632
0.0746319
0.0749064
0.0754719
0.0763438
0.0775531
0.0791198
0.081037
0.083212
0.0853551
0.0868534
0.049025
0.0475747
0.045623
0.0436812
0.0420379
0.0407258
0.0397424
0.0390594
0.0386199
0.0384035
0.0384034
0.0386195
0.0390592
0.0397424
0.0407257
0.0420377
0.0436811
0.045623
0.0475746
0.0490249
0.0204588
0.0194699
0.0183242
0.0168708
0.015544
0.0144132
0.0134642
0.0128273
0.0124182
0.0122164
0.0122163
0.0124179
0.0128272
0.0134642
0.0144132
0.0155439
0.0168707
0.0183241
0.0194698
0.0204587
0.0040692
0.00382126
0.00352495
0.00312086
0.00277218
0.00250044
0.00231849
0.0021767
0.00208506
0.00204108
0.00204104
0.002085
0.00217667
0.00231847
0.00250041
0.00277217
0.00312084
0.00352494
0.00382123
0.00406915
0.000461845
0.000436199
0.000394027
0.000341142
0.000298319
0.000265312
0.000243427
0.000226162
0.000215213
0.000210044
0.000210039
0.000215206
0.000226159
0.000243426
0.000265308
0.000298315
0.000341135
0.00039402
0.00043619
0.000461835
3.84497e-05
3.63426e-05
3.27332e-05
2.82873e-05
2.45928e-05
2.17526e-05
1.98467e-05
1.83644e-05
1.74336e-05
1.70024e-05
1.70021e-05
1.74332e-05
1.83642e-05
1.98466e-05
2.17523e-05
2.45922e-05
2.82862e-05
3.27324e-05
3.63416e-05
3.84486e-05
2.83835e-06
2.68503e-06
2.42047e-06
2.09536e-06
1.82012e-06
1.61201e-06
1.46148e-06
1.35025e-06
1.28084e-06
1.24911e-06
1.24909e-06
1.28082e-06
1.35024e-06
1.46147e-06
1.61199e-06
1.82004e-06
2.09517e-06
2.42042e-06
2.68493e-06
2.83825e-06
1.25692e-07
1.18996e-07
1.07373e-07
9.31101e-08
8.09074e-08
7.16257e-08
6.48301e-08
5.98719e-08
5.67834e-08
5.5368e-08
5.5368e-08
5.67828e-08
5.98712e-08
6.48292e-08
7.16241e-08
8.09029e-08
9.30971e-08
1.07369e-07
1.18992e-07
1.25687e-07
2.08289e-06
2.0682e-06
2.05286e-06
2.02488e-06
2.00186e-06
1.98646e-06
1.97641e-06
1.97152e-06
1.97034e-06
1.97068e-06
1.97068e-06
1.97034e-06
1.97152e-06
1.97641e-06
1.98646e-06
2.00186e-06
2.02488e-06
2.05286e-06
2.0682e-06
2.0829e-06
2.86578e-05
2.84129e-05
2.81854e-05
2.77801e-05
2.7464e-05
2.72583e-05
2.7122e-05
2.70577e-05
2.70448e-05
2.70524e-05
2.70524e-05
2.70447e-05
2.70576e-05
2.71219e-05
2.72582e-05
2.74639e-05
2.77801e-05
2.81854e-05
2.84129e-05
2.86578e-05
0.000222339
0.000219254
0.000216873
0.000213391
0.000210961
0.000209467
0.000208455
0.000208031
0.000208
0.000208128
0.000208127
0.000208
0.00020803
0.000208455
0.000209466
0.00021096
0.00021339
0.000216872
0.000219253
0.000222338
0.00147798
0.00144257
0.00141734
0.00139172
0.00137599
0.00136723
0.00136128
0.00135967
0.00136017
0.00136169
0.00136169
0.00136017
0.00135966
0.00136128
0.00136723
0.00137599
0.00139172
0.00141734
0.00144256
0.00147797
0.00751697
0.00728005
0.00711222
0.00698223
0.00690542
0.00684833
0.00682458
0.00682004
0.00682516
0.00683872
0.00683872
0.00682515
0.00682002
0.00682457
0.00684831
0.0069054
0.0069822
0.00711219
0.00728001
0.00751693
0.0249003
0.0241916
0.0236037
0.0232405
0.0230469
0.0229571
0.0229301
0.0229425
0.0229859
0.0231173
0.0231173
0.0229859
0.0229425
0.02293
0.022957
0.0230468
0.0232405
0.0236036
0.0241915
0.0249002
0.050473
0.0497409
0.0490734
0.0486996
0.0485372
0.0484912
0.0485209
0.048584
0.0486489
0.0487005
0.0487005
0.0486488
0.0485839
0.0485209
0.0484912
0.0485372
0.0486995
0.0490733
0.0497408
0.0504729
0.0744134
0.0739705
0.0735755
0.073387
0.0733475
0.073412
0.0735253
0.0736433
0.0737367
0.0737881
0.073788
0.0737367
0.0736433
0.0735252
0.0734119
0.0733474
0.0733869
0.0735754
0.0739704
0.0744132
0.0928867
0.0927567
0.0926601
0.0926763
0.0927877
0.0929473
0.0931148
0.0932607
0.0933665
0.0934204
0.0934204
0.0933665
0.0932607
0.0931147
0.0929473
0.0927877
0.0926761
0.09266
0.0927566
0.0928866
0.105185
0.10517
0.105194
0.105274
0.105392
0.105523
0.105647
0.105749
0.105821
0.105857
0.105857
0.105821
0.105749
0.105647
0.105523
0.105392
0.105274
0.105194
0.10517
0.105184
0.110777
0.110716
0.110645
0.110594
0.110567
0.110558
0.110562
0.11057
0.110578
0.110582
0.110582
0.110578
0.11057
0.110561
0.110558
0.110567
0.110594
0.110645
0.110716
0.110776
0.108466
0.108017
0.107385
0.106761
0.106223
0.105792
0.105465
0.105231
0.10508
0.105008
0.105008
0.10508
0.105231
0.105465
0.105792
0.106223
0.106761
0.107385
0.108017
0.108466
0.0853552
0.0836911
0.0813588
0.0790604
0.0770685
0.0754608
0.0742288
0.0733366
0.0727564
0.0724749
0.0724748
0.0727562
0.0733364
0.0742287
0.0754606
0.0770683
0.0790602
0.0813587
0.083691
0.085355
0.0475747
0.0459995
0.0438551
0.0418718
0.0402185
0.0389373
0.0379963
0.0373285
0.0368889
0.0366766
0.0366765
0.0368886
0.0373284
0.0379963
0.0389371
0.0402183
0.0418717
0.0438551
0.0459994
0.0475746
0.0194699
0.0185997
0.0169833
0.0154526
0.0140987
0.0129621
0.0122246
0.0117583
0.0113812
0.0111852
0.0111851
0.0113811
0.0117583
0.0122246
0.012962
0.0140986
0.0154526
0.0169833
0.0185997
0.0194698
0.00382126
0.00360296
0.00315856
0.00277137
0.00247379
0.0022545
0.00204282
0.00191475
0.00183295
0.00179088
0.00179089
0.00183297
0.00191475
0.00204281
0.00225445
0.00247375
0.00277136
0.00315855
0.00360294
0.00382122
0.000436199
0.000402772
0.000351733
0.000307697
0.000271738
0.00024208
0.000213391
0.000197354
0.000187672
0.000182916
0.000182917
0.000187673
0.000197354
0.00021339
0.000242076
0.000271735
0.000307697
0.000351732
0.00040276
0.000436189
3.63426e-05
3.35792e-05
2.98342e-05
2.5892e-05
2.2797e-05
2.01087e-05
1.75884e-05
1.61795e-05
1.53501e-05
1.49577e-05
1.49577e-05
1.53501e-05
1.61794e-05
1.75883e-05
2.01085e-05
2.27965e-05
2.58916e-05
2.98338e-05
3.35781e-05
3.63415e-05
2.68503e-06
2.4921e-06
2.23192e-06
1.94078e-06
1.69959e-06
1.48852e-06
1.3075e-06
1.20069e-06
1.13834e-06
1.10936e-06
1.10936e-06
1.13834e-06
1.20068e-06
1.3075e-06
1.4885e-06
1.69951e-06
1.94065e-06
2.23184e-06
2.492e-06
2.68492e-06
1.18996e-07
1.10805e-07
9.94799e-08
8.66012e-08
7.56981e-08
6.62652e-08
5.84669e-08
5.36576e-08
5.08417e-08
4.95364e-08
4.9536e-08
5.08409e-08
5.3657e-08
5.84666e-08
6.62642e-08
7.5692e-08
8.65833e-08
9.94743e-08
1.108e-07
1.18991e-07
2.06632e-06
2.05286e-06
2.03764e-06
2.00973e-06
1.98875e-06
1.97643e-06
1.96818e-06
1.96367e-06
1.96253e-06
1.96264e-06
1.96264e-06
1.96253e-06
1.96366e-06
1.96818e-06
1.97643e-06
1.98875e-06
2.00973e-06
2.03764e-06
2.05286e-06
2.06633e-06
2.84087e-05
2.81854e-05
2.79492e-05
2.75436e-05
2.72589e-05
2.7102e-05
2.69918e-05
2.69298e-05
2.69171e-05
2.69204e-05
2.69204e-05
2.6917e-05
2.69298e-05
2.69918e-05
2.7102e-05
2.72588e-05
2.75436e-05
2.79491e-05
2.81854e-05
2.84087e-05
0.000219751
0.000216873
0.000214137
0.000210629
0.000208472
0.000207473
0.000206665
0.00020616
0.000206108
0.000206161
0.000206161
0.000206108
0.00020616
0.000206665
0.000207473
0.000208471
0.000210628
0.000214136
0.000216872
0.00021975
0.0014507
0.00141734
0.00138541
0.00135956
0.00134569
0.00134143
0.00133623
0.00133484
0.00133513
0.0013358
0.0013358
0.00133513
0.00133484
0.00133623
0.00134143
0.00134569
0.00135956
0.0013854
0.00141734
0.00145069
0.00732078
0.00711222
0.00688148
0.00674801
0.00668343
0.00666943
0.00665661
0.00665504
0.00665974
0.00666469
0.00666469
0.00665974
0.00665503
0.00665659
0.00666941
0.00668341
0.00674799
0.00688145
0.00711218
0.00732074
0.024362
0.0236037
0.0229748
0.0226077
0.022425
0.022352
0.0223318
0.0223435
0.022366
0.0223823
0.0223823
0.022366
0.0223435
0.0223317
0.0223519
0.0224249
0.0226076
0.0229747
0.0236036
0.0243619
0.0498881
0.0490734
0.048356
0.0479672
0.0478017
0.0477575
0.0477887
0.047851
0.04791
0.0479449
0.0479449
0.04791
0.047851
0.0477886
0.0477574
0.0478017
0.0479672
0.0483559
0.0490733
0.049888
0.0740833
0.0735755
0.0731364
0.0729339
0.0728898
0.0729555
0.0730711
0.0731905
0.0732838
0.073333
0.073333
0.0732838
0.0731905
0.0730711
0.0729555
0.0728897
0.0729338
0.0731364
0.0735754
0.0740832
0.092816
0.0926601
0.0925448
0.0925543
0.092667
0.0928301
0.0930008
0.093149
0.0932559
0.0933101
0.0933101
0.0932559
0.0931489
0.0930007
0.0928303
0.0926669
0.0925543
0.0925448
0.09266
0.0928158
0.105215
0.105194
0.105213
0.105293
0.105414
0.105547
0.105672
0.105774
0.105846
0.105881
0.105881
0.105846
0.105774
0.105672
0.105547
0.105414
0.105293
0.105213
0.105194
0.105215
0.110719
0.110645
0.110559
0.110496
0.11046
0.110444
0.110441
0.110444
0.110448
0.110451
0.110451
0.110448
0.110444
0.110441
0.110444
0.11046
0.110496
0.110559
0.110645
0.110719
0.107897
0.107385
0.106688
0.106016
0.105447
0.104996
0.104652
0.104405
0.104247
0.104171
0.104171
0.104247
0.104405
0.104652
0.104996
0.105447
0.106016
0.106688
0.107385
0.107897
0.0832122
0.0813588
0.0788685
0.0764815
0.0744512
0.0728285
0.0715773
0.0706601
0.0700707
0.0697882
0.0697882
0.0700706
0.0706601
0.0715772
0.0728283
0.0744509
0.0764813
0.0788684
0.0813587
0.083212
0.045623
0.0438551
0.0416828
0.0397239
0.0381427
0.0369306
0.0359828
0.0352486
0.0347897
0.0345731
0.0345731
0.0347897
0.0352486
0.0359828
0.0369305
0.0381425
0.0397238
0.0416828
0.0438551
0.045623
0.0183242
0.0169833
0.0153779
0.0138408
0.01255
0.0116792
0.0109222
0.0101794
0.00982887
0.00967924
0.00967924
0.00982887
0.0101794
0.0109222
0.0116791
0.0125498
0.0138408
0.0153779
0.0169833
0.0183241
0.00352495
0.00315856
0.00278365
0.00244123
0.00219044
0.00193012
0.00176623
0.00163108
0.00156177
0.00153257
0.00153257
0.00156177
0.00163107
0.00176621
0.00193004
0.00219044
0.00244122
0.00278367
0.00315856
0.00352493
0.000394027
0.000351733
0.000316887
0.000270972
0.000233851
0.00020333
0.000184083
0.000169372
0.000161602
0.000158411
0.000158411
0.000161602
0.000169372
0.000184081
0.000203321
0.000233851
0.00027097
0.000316882
0.000351732
0.000394018
3.27332e-05
2.98342e-05
2.70783e-05
2.29859e-05
1.95386e-05
1.69483e-05
1.52968e-05
1.40947e-05
1.34501e-05
1.31796e-05
1.31797e-05
1.34501e-05
1.40947e-05
1.52968e-05
1.69483e-05
1.95384e-05
2.29852e-05
2.70775e-05
2.98338e-05
3.27322e-05
2.42047e-06
2.23192e-06
2.02821e-06
1.71803e-06
1.4608e-06
1.26841e-06
1.14312e-06
1.05573e-06
1.00729e-06
9.8651e-07
9.86512e-07
1.00729e-06
1.05573e-06
1.14312e-06
1.26843e-06
1.46082e-06
1.71812e-06
2.02836e-06
2.23184e-06
2.4204e-06
1.07373e-07
9.94799e-08
9.02977e-08
7.678e-08
6.55458e-08
5.69621e-08
5.11993e-08
4.7274e-08
4.50604e-08
4.40981e-08
4.40981e-08
4.50605e-08
4.72742e-08
5.11996e-08
5.69634e-08
6.5546e-08
7.67816e-08
9.03102e-08
9.94741e-08
1.07368e-07
2.04057e-06
2.02488e-06
2.00973e-06
1.97994e-06
1.95777e-06
1.94427e-06
1.93797e-06
1.93585e-06
1.93501e-06
1.93492e-06
1.93492e-06
1.93501e-06
1.93584e-06
1.93796e-06
1.94426e-06
1.95776e-06
1.97993e-06
2.00973e-06
2.02488e-06
2.04057e-06
2.80382e-05
2.77801e-05
2.75436e-05
2.71075e-05
2.68013e-05
2.66211e-05
2.65432e-05
2.65224e-05
2.65132e-05
2.65131e-05
2.65131e-05
2.65131e-05
2.65223e-05
2.65431e-05
2.6621e-05
2.68012e-05
2.71075e-05
2.75436e-05
2.77801e-05
2.80381e-05
0.000216577
0.000213391
0.000210629
0.000206878
0.000204488
0.000203179
0.000202733
0.000202735
0.000202711
0.000202738
0.000202738
0.00020271
0.000202735
0.000202733
0.000203179
0.000204487
0.000206877
0.000210628
0.00021339
0.000216576
0.00142678
0.00139172
0.00135956
0.00133291
0.00131728
0.00130967
0.00130841
0.00130758
0.00130781
0.00130823
0.00130823
0.00130781
0.00130758
0.00130841
0.00130966
0.00131727
0.0013329
0.00135956
0.00139172
0.00142677
0.00719437
0.00698223
0.00674801
0.00661557
0.00654322
0.00650962
0.00649743
0.00649586
0.00649972
0.00650298
0.00650297
0.00649972
0.00649585
0.00649742
0.00650961
0.0065432
0.00661555
0.00674799
0.0069822
0.00719434
0.0240316
0.0232405
0.0226077
0.0222434
0.0220608
0.0219852
0.0219662
0.0219787
0.0220005
0.0220145
0.0220145
0.0220005
0.0219787
0.0219662
0.0219852
0.0220608
0.0222433
0.0226076
0.0232405
0.0240315
0.049564
0.0486996
0.0479672
0.0475822
0.0474217
0.0473815
0.0474165
0.047481
0.0475401
0.0475727
0.0475727
0.04754
0.047481
0.0474165
0.0473815
0.0474217
0.0475822
0.0479672
0.0486995
0.049564
0.0739282
0.073387
0.0729339
0.0727315
0.0726906
0.072761
0.0728804
0.073002
0.0730963
0.0731453
0.0731453
0.0730963
0.073002
0.0728803
0.0727609
0.0726906
0.0727314
0.0729338
0.0733869
0.0739281
0.0928454
0.0926763
0.0925543
0.0925662
0.0926848
0.0928541
0.0930285
0.0931789
0.093287
0.0933413
0.0933413
0.093287
0.0931789
0.0930285
0.0928538
0.0926847
0.0925662
0.0925543
0.0926761
0.0928452
0.105298
0.105274
0.105293
0.105376
0.1055
0.105635
0.105759
0.105861
0.105931
0.105967
0.105967
0.105931
0.105861
0.105759
0.105634
0.1055
0.105376
0.105293
0.105274
0.105298
0.110678
0.110594
0.110496
0.110422
0.110379
0.110357
0.110348
0.110347
0.110349
0.11035
0.11035
0.110349
0.110347
0.110348
0.110357
0.110379
0.110422
0.110496
0.110594
0.110678
0.107322
0.106761
0.106016
0.105313
0.104724
0.104259
0.103908
0.103659
0.1035
0.103425
0.103425
0.1035
0.103659
0.103908
0.104259
0.104724
0.105313
0.106016
0.106761
0.107322
0.0810371
0.0790604
0.0764815
0.0740622
0.0720228
0.0703907
0.0691441
0.0682487
0.0676746
0.0674003
0.0674003
0.0676746
0.0682487
0.0691441
0.0703905
0.0720225
0.074062
0.0764814
0.0790602
0.0810369
0.0436812
0.0418718
0.0397239
0.0378467
0.0363231
0.0350893
0.0341317
0.0334431
0.0330037
0.0327958
0.0327958
0.0330037
0.0334431
0.0341317
0.0350892
0.0363229
0.0378466
0.0397238
0.0418717
0.043681
0.0168708
0.0154526
0.0138408
0.0123695
0.0112712
0.0102484
0.00953693
0.0090999
0.00884828
0.00873583
0.00873583
0.00884828
0.0090999
0.00953693
0.0102484
0.0112712
0.0123694
0.0138408
0.0154526
0.0168707
0.00312086
0.00277137
0.00244123
0.00215649
0.00185612
0.00165173
0.00151596
0.00143428
0.001386
0.00136433
0.00136433
0.001386
0.00143428
0.00151595
0.00165168
0.00185615
0.00215647
0.0024412
0.00277135
0.00312084
0.000341142
0.000307697
0.000270972
0.000230617
0.000196297
0.000173021
0.000157805
0.000148656
0.000143171
0.000140696
0.000140696
0.000143171
0.000148656
0.000157803
0.000173012
0.000196299
0.000230613
0.000270967
0.000307695
0.000341132
2.82873e-05
2.5892e-05
2.29859e-05
1.93321e-05
1.64641e-05
1.45e-05
1.32257e-05
1.24393e-05
1.19659e-05
1.17519e-05
1.17519e-05
1.19659e-05
1.24393e-05
1.32255e-05
1.45001e-05
1.64642e-05
1.93315e-05
2.29849e-05
2.58914e-05
2.82858e-05
2.09536e-06
1.94078e-06
1.71803e-06
1.44955e-06
1.2381e-06
1.09151e-06
9.95734e-07
9.35136e-07
8.98779e-07
8.82358e-07
8.82358e-07
8.98781e-07
9.35139e-07
9.95734e-07
1.09154e-06
1.23808e-06
1.44956e-06
1.71811e-06
1.94064e-06
2.09514e-06
9.31101e-08
8.66012e-08
7.678e-08
6.51557e-08
5.57219e-08
4.90394e-08
4.4658e-08
4.18566e-08
4.01929e-08
3.9446e-08
3.9446e-08
4.01929e-08
4.18569e-08
4.46584e-08
4.90417e-08
5.57201e-08
6.51549e-08
7.67811e-08
8.65826e-08
9.30956e-08
2.01768e-06
2.00186e-06
1.98875e-06
1.95777e-06
1.93612e-06
1.92248e-06
1.91537e-06
1.91234e-06
1.91145e-06
1.91134e-06
1.91134e-06
1.91144e-06
1.91233e-06
1.91536e-06
1.92248e-06
1.93611e-06
1.95776e-06
1.98875e-06
2.00186e-06
2.01768e-06
2.77216e-05
2.7464e-05
2.72589e-05
2.68013e-05
2.65063e-05
2.63222e-05
2.62278e-05
2.61885e-05
2.61771e-05
2.61765e-05
2.61765e-05
2.61771e-05
2.61884e-05
2.62278e-05
2.63221e-05
2.65062e-05
2.68012e-05
2.72589e-05
2.74639e-05
2.77215e-05
0.000214109
0.000210961
0.000208472
0.000204488
0.000202199
0.000200826
0.000200163
0.000199915
0.00019987
0.000199889
0.000199888
0.00019987
0.000199914
0.000200162
0.000200825
0.000202198
0.000204487
0.000208471
0.00021096
0.000214108
0.00141043
0.00137599
0.00134569
0.00131728
0.00130213
0.00129386
0.0012903
0.00128921
0.00128936
0.00128971
0.00128971
0.00128936
0.00128921
0.0012903
0.00129386
0.00130213
0.00131727
0.00134569
0.00137599
0.00141043
0.00711879
0.00690542
0.00668343
0.00654322
0.00647115
0.00643666
0.00642395
0.00642241
0.00642611
0.00642908
0.00642908
0.00642611
0.0064224
0.00642394
0.00643664
0.00647114
0.0065432
0.00668341
0.0069054
0.00711877
0.0238613
0.0230469
0.022425
0.0220608
0.0218803
0.0218058
0.0217876
0.0218002
0.0218216
0.0218349
0.0218349
0.0218216
0.0218002
0.0217876
0.0218058
0.0218802
0.0220608
0.0224249
0.0230468
0.0238612
0.04943
0.0485372
0.0478017
0.0474217
0.0472654
0.0472278
0.0472643
0.0473291
0.0473877
0.0474196
0.0474196
0.0473877
0.0473291
0.0472643
0.0472278
0.0472654
0.0474217
0.0478017
0.0485372
0.0494299
0.0739109
0.0733475
0.0728898
0.0726906
0.0726535
0.0727271
0.0728483
0.0729705
0.0730646
0.0731132
0.0731132
0.0730646
0.0729705
0.0728483
0.0727271
0.0726533
0.0726906
0.0728898
0.0733474
0.0739109
0.0929616
0.0927877
0.092667
0.0926848
0.0928094
0.0929827
0.0931595
0.0933102
0.0934179
0.093472
0.093472
0.0934179
0.0933102
0.0931594
0.0929827
0.0928096
0.0926848
0.0926669
0.0927875
0.0929616
0.105416
0.105392
0.105414
0.1055
0.105624
0.105759
0.105883
0.105982
0.106051
0.106086
0.106086
0.106051
0.105982
0.105883
0.105759
0.105624
0.1055
0.105414
0.105392
0.105416
0.110659
0.110567
0.11046
0.110379
0.110328
0.110301
0.110289
0.110285
0.110284
0.110285
0.110285
0.110284
0.110285
0.110289
0.110301
0.110328
0.110379
0.11046
0.110567
0.110659
0.106818
0.106223
0.105447
0.104724
0.104122
0.103652
0.103302
0.103056
0.1029
0.102826
0.102826
0.1029
0.103056
0.103302
0.103652
0.104122
0.104724
0.105447
0.106223
0.106818
0.07912
0.0770685
0.0744512
0.0720228
0.0699784
0.0683644
0.0671463
0.0662796
0.065727
0.0654641
0.0654641
0.065727
0.0662796
0.0671463
0.0683643
0.0699783
0.0720226
0.0744509
0.0770682
0.0791197
0.0420379
0.0402185
0.0381427
0.0363231
0.0347768
0.0335609
0.0326386
0.0319811
0.0315616
0.0313641
0.0313641
0.0315616
0.031981
0.0326386
0.0335609
0.0347767
0.036323
0.0381425
0.0402183
0.0420377
0.015544
0.0140987
0.01255
0.0112712
0.0100213
0.0092264
0.00870059
0.0083592
0.00815338
0.00806
0.00806
0.00815338
0.00835919
0.00870057
0.00922641
0.0100213
0.0112712
0.0125498
0.0140985
0.0155439
0.00277218
0.00247379
0.00219044
0.00185612
0.00161722
0.00146472
0.00136361
0.00129666
0.0012559
0.00123752
0.00123752
0.0012559
0.00129666
0.00136361
0.00146472
0.00161724
0.00185612
0.0021904
0.00247372
0.00277213
0.000298319
0.000271738
0.000233851
0.000196297
0.000169936
0.000152859
0.000141381
0.000133684
0.000128982
0.000126867
0.000126867
0.000128982
0.000133685
0.000141381
0.00015286
0.000169937
0.000196294
0.000233846
0.00027173
0.000298308
2.45928e-05
2.2797e-05
1.95386e-05
1.64641e-05
1.42882e-05
1.28482e-05
1.18628e-05
1.11977e-05
1.07904e-05
1.06069e-05
1.0607e-05
1.07904e-05
1.11977e-05
1.18629e-05
1.28482e-05
1.42882e-05
1.64639e-05
1.9538e-05
2.2796e-05
2.45915e-05
1.82012e-06
1.69959e-06
1.4608e-06
1.2381e-06
1.07782e-06
9.68577e-07
8.93363e-07
8.42613e-07
8.11563e-07
7.97539e-07
7.9754e-07
8.11565e-07
8.42618e-07
8.93368e-07
9.68583e-07
1.07781e-06
1.23806e-06
1.46079e-06
1.69947e-06
1.81998e-06
8.09074e-08
7.56981e-08
6.55458e-08
5.57219e-08
4.84531e-08
4.34348e-08
3.99923e-08
3.76982e-08
3.62989e-08
3.5665e-08
3.56651e-08
3.6299e-08
3.76984e-08
3.99927e-08
4.34352e-08
4.84527e-08
5.57197e-08
6.55451e-08
7.56901e-08
8.08991e-08
2.00041e-06
1.98646e-06
1.97643e-06
1.94427e-06
1.92248e-06
1.90921e-06
1.9023e-06
1.89931e-06
1.89847e-06
1.89839e-06
1.89839e-06
1.89847e-06
1.89931e-06
1.90229e-06
1.9092e-06
1.92248e-06
1.94426e-06
1.97643e-06
1.98646e-06
2.00041e-06
2.74823e-05
2.72583e-05
2.7102e-05
2.66211e-05
2.63222e-05
2.61436e-05
2.60523e-05
2.60139e-05
2.60034e-05
2.60031e-05
2.6003e-05
2.60034e-05
2.60139e-05
2.60523e-05
2.61435e-05
2.63221e-05
2.6621e-05
2.7102e-05
2.72582e-05
2.74823e-05
0.000212221
0.000209467
0.000207473
0.000203179
0.000200826
0.000199487
0.000198838
0.00019859
0.000198547
0.000198564
0.000198564
0.000198547
0.00019859
0.000198838
0.000199486
0.000200825
0.000203179
0.000207473
0.000209466
0.00021222
0.00139721
0.00136723
0.00134143
0.00130967
0.00129386
0.00128568
0.00128208
0.001281
0.00128113
0.00128144
0.00128144
0.00128112
0.001281
0.00128208
0.00128568
0.00129386
0.00130966
0.00134143
0.00136723
0.0013972
0.00707706
0.00684833
0.00666943
0.00650962
0.00643666
0.00640238
0.00638969
0.00638803
0.00639144
0.00639417
0.00639417
0.00639144
0.00638802
0.00638968
0.00640236
0.00643664
0.00650961
0.00666941
0.00684831
0.00707703
0.0237916
0.0229571
0.022352
0.0219852
0.0218058
0.0217319
0.0217137
0.0217255
0.0217459
0.0217585
0.0217585
0.0217459
0.0217255
0.0217137
0.0217319
0.0218058
0.0219852
0.0223519
0.022957
0.0237915
0.0494062
0.0484912
0.0477575
0.0473815
0.0472278
0.0471913
0.0472279
0.047292
0.0473498
0.0473811
0.0473811
0.0473497
0.047292
0.0472278
0.0471913
0.0472278
0.0473815
0.0477574
0.0484912
0.0494061
0.0739905
0.073412
0.0729555
0.072761
0.0727271
0.0728029
0.0729243
0.0730455
0.0731386
0.0731865
0.0731865
0.0731386
0.0730455
0.0729242
0.072803
0.0727271
0.0727609
0.0729555
0.073412
0.0739905
0.0931228
0.0929473
0.0928301
0.0928541
0.0929827
0.0931576
0.0933342
0.0934838
0.0935902
0.0936434
0.0936434
0.0935902
0.0934838
0.0933341
0.0931576
0.0929827
0.0928538
0.0928303
0.0929472
0.0931227
0.105546
0.105523
0.105547
0.105635
0.105759
0.105892
0.106014
0.106111
0.106178
0.106211
0.106211
0.106178
0.106111
0.106014
0.105892
0.105759
0.105634
0.105547
0.105523
0.105546
0.110656
0.110558
0.110444
0.110357
0.110301
0.11027
0.110255
0.110249
0.110247
0.110247
0.110247
0.110247
0.110249
0.110255
0.11027
0.110301
0.110357
0.110444
0.110558
0.110656
0.106412
0.105792
0.104996
0.104259
0.103652
0.103184
0.102838
0.102597
0.102445
0.102373
0.102373
0.102445
0.102597
0.102838
0.103184
0.103652
0.104259
0.104996
0.105792
0.106411
0.0775533
0.0754608
0.0728285
0.0703907
0.0683644
0.0667803
0.0655955
0.0647584
0.0642269
0.0639752
0.0639751
0.0642269
0.0647583
0.0655956
0.0667802
0.0683643
0.0703905
0.0728282
0.0754605
0.0775529
0.0407258
0.0389373
0.0369306
0.0350893
0.0335609
0.0323717
0.0314794
0.0308485
0.0304492
0.0302624
0.0302624
0.0304492
0.0308485
0.0314794
0.0323717
0.0335609
0.0350892
0.0369304
0.038937
0.0407255
0.0144132
0.0129621
0.0116792
0.0102484
0.0092264
0.00857095
0.00812689
0.00783177
0.00765227
0.00757056
0.00757056
0.00765226
0.00783176
0.00812688
0.00857094
0.00922639
0.0102483
0.0116791
0.012962
0.0144131
0.00250044
0.0022545
0.00193012
0.00165173
0.00146472
0.00133983
0.00125299
0.0011945
0.00115881
0.00114271
0.00114271
0.00115881
0.0011945
0.00125299
0.00133983
0.00146471
0.00165166
0.00193004
0.00225444
0.00250039
0.000265312
0.00024208
0.00020333
0.000173021
0.000152859
0.000138847
0.000128945
0.000122219
0.000118105
0.000116256
0.000116256
0.000118105
0.000122219
0.000128945
0.000138847
0.000152859
0.000173011
0.00020332
0.000242072
0.000265302
2.17526e-05
2.01087e-05
1.69483e-05
1.45e-05
1.28482e-05
1.166e-05
1.08105e-05
1.02297e-05
9.87354e-06
9.71354e-06
9.71354e-06
9.87357e-06
1.02297e-05
1.08105e-05
1.16601e-05
1.28482e-05
1.45e-05
1.69482e-05
2.01082e-05
2.17516e-05
1.61201e-06
1.48852e-06
1.26841e-06
1.09151e-06
9.68577e-07
8.78784e-07
8.1434e-07
7.70198e-07
7.43168e-07
7.30988e-07
7.30988e-07
7.43169e-07
7.70203e-07
8.14346e-07
8.78791e-07
9.68583e-07
1.09153e-06
1.26843e-06
1.48847e-06
1.61191e-06
7.16257e-08
6.62652e-08
5.69621e-08
4.90394e-08
4.34348e-08
3.93486e-08
3.64457e-08
3.4461e-08
3.3245e-08
3.2695e-08
3.2695e-08
3.3245e-08
3.44611e-08
3.64458e-08
3.93489e-08
4.34352e-08
4.90416e-08
5.69631e-08
6.62618e-08
7.1616e-08
1.99102e-06
1.97641e-06
1.96818e-06
1.93797e-06
1.91537e-06
1.9023e-06
1.89565e-06
1.89278e-06
1.89192e-06
1.89176e-06
1.89176e-06
1.89191e-06
1.89277e-06
1.89564e-06
1.90229e-06
1.91536e-06
1.93796e-06
1.96818e-06
1.97641e-06
1.99102e-06
2.73586e-05
2.7122e-05
2.69918e-05
2.65432e-05
2.62278e-05
2.60523e-05
2.59646e-05
2.59277e-05
2.59169e-05
2.59155e-05
2.59154e-05
2.59169e-05
2.59276e-05
2.59646e-05
2.60522e-05
2.62277e-05
2.65431e-05
2.69917e-05
2.71219e-05
2.73585e-05
0.000211374
0.000208455
0.000206665
0.000202733
0.000200163
0.000198838
0.000198207
0.000197965
0.000197916
0.000197924
0.000197923
0.000197916
0.000197965
0.000198207
0.000198838
0.000200162
0.000202733
0.000206665
0.000208454
0.000211374
0.00139283
0.00136128
0.00133623
0.00130841
0.0012903
0.00128208
0.00127851
0.00127741
0.00127746
0.0012777
0.0012777
0.00127746
0.00127741
0.00127851
0.00128208
0.0012903
0.00130841
0.00133623
0.00136128
0.00139282
0.00706833
0.00682458
0.00665661
0.00649743
0.00642395
0.00638969
0.00637684
0.00637487
0.00637782
0.0063802
0.0063802
0.00637782
0.00637486
0.00637684
0.00638968
0.00642394
0.00649742
0.00665659
0.00682457
0.00706831
0.0237809
0.0229301
0.0223318
0.0219662
0.0217876
0.0217137
0.0216949
0.0217056
0.0217249
0.0217367
0.0217367
0.0217249
0.0217056
0.0216949
0.0217137
0.0217876
0.0219662
0.0223317
0.02293
0.0237809
0.0494528
0.0485209
0.0477887
0.0474165
0.0472643
0.0472279
0.0472631
0.0473254
0.0473814
0.0474116
0.0474116
0.0473814
0.0473254
0.047263
0.0472278
0.0472643
0.0474165
0.0477886
0.0485209
0.0494528
0.074113
0.0735253
0.0730711
0.0728804
0.0728483
0.0729243
0.0730443
0.0731638
0.0732552
0.0733021
0.0733021
0.0732552
0.0731638
0.0730443
0.0729242
0.0728483
0.0728803
0.0730712
0.0735252
0.074113
0.0932904
0.0931148
0.0930008
0.0930285
0.0931595
0.0933342
0.0935091
0.0936569
0.0937618
0.093814
0.093814
0.0937618
0.0936569
0.0935089
0.0933341
0.0931592
0.0930286
0.0930006
0.0931147
0.0932904
0.10567
0.105647
0.105672
0.105759
0.105883
0.106014
0.106132
0.106227
0.106292
0.106325
0.106325
0.106292
0.106227
0.106132
0.106014
0.105883
0.105759
0.105672
0.105647
0.105669
0.110666
0.110562
0.110441
0.110348
0.110289
0.110255
0.110238
0.11023
0.110227
0.110227
0.110227
0.110227
0.11023
0.110238
0.110255
0.110289
0.110348
0.110441
0.110561
0.110666
0.106102
0.105465
0.104652
0.103908
0.103302
0.102838
0.102498
0.102261
0.102113
0.102043
0.102043
0.102113
0.102261
0.102498
0.102838
0.103302
0.103908
0.104652
0.105465
0.106102
0.0763439
0.0742288
0.0715773
0.0691441
0.0671463
0.0655955
0.0644425
0.0636314
0.0631182
0.0628758
0.0628758
0.0631182
0.0636313
0.0644424
0.0655954
0.0671462
0.069144
0.071577
0.0742285
0.0763434
0.0397424
0.0379963
0.0359828
0.0341317
0.0326386
0.0314794
0.030617
0.0300114
0.0296298
0.0294518
0.0294518
0.0296297
0.0300114
0.030617
0.0314794
0.0326385
0.0341316
0.0359826
0.0379961
0.0397421
0.0134642
0.0122246
0.0109222
0.00953693
0.00870059
0.00812689
0.00772996
0.00746339
0.00730015
0.00722569
0.00722568
0.00730015
0.00746338
0.00772994
0.00812686
0.00870054
0.00953686
0.0109221
0.0122245
0.013464
0.00231849
0.00204282
0.00176623
0.00151596
0.00136361
0.00125299
0.00117509
0.00112228
0.00108988
0.00107525
0.00107525
0.00108988
0.00112228
0.00117509
0.00125298
0.0013636
0.00151595
0.00176619
0.00204279
0.00231844
0.000243427
0.000213391
0.000184083
0.000157805
0.000141381
0.000128945
0.000120078
0.000114021
0.000110303
0.000108631
0.000108631
0.000110303
0.000114022
0.000120078
0.000128945
0.000141381
0.000157803
0.00018408
0.000213387
0.000243418
1.98467e-05
1.75884e-05
1.52968e-05
1.32257e-05
1.18628e-05
1.08105e-05
1.00514e-05
9.52974e-06
9.20939e-06
9.06607e-06
9.06607e-06
9.20941e-06
9.52977e-06
1.00514e-05
1.08105e-05
1.18629e-05
1.32256e-05
1.52967e-05
1.75878e-05
1.98456e-05
1.46148e-06
1.3075e-06
1.14312e-06
9.95734e-07
8.93363e-07
8.1434e-07
7.57032e-07
7.17676e-07