/*--------------------------------*- C++ -*----------------------------------*\
  =========                 |
  \\      /  F ield         | OpenFOAM: The Open Source CFD Toolbox
   \\    /   O peration     | Website:  https://openfoam.org
    \\  /    A nd           | Version:  7
     \\/     M anipulation  |
\*---------------------------------------------------------------------------*/
FoamFile
{
    version     2.0;
    format      ascii;
    class       volScalarField;
    location    "0.5/newMesh";
    object      N2;
}
// * * * * * * * * * * * * * * * * * * * * * * * * * * * * * * * * * * * * * //

dimensions      [0 0 0 0 0 0 0];

internalField   nonuniform List<scalar> 
8000
(
0.2
1.23544e-05
1.22579e-05
1.21063e-05
1.19712e-05
1.18692e-05
1.18137e-05
1.17914e-05
1.17882e-05
1.17916e-05
1.17916e-05
1.17882e-05
1.17913e-05
1.18136e-05
1.18691e-05
1.1971e-05
1.21061e-05
1.22576e-05
1.23541e-05
1.24451e-05
0.000171599
0.000170066
0.000168606
0.000166418
0.000164545
0.000163128
0.000162396
0.00016212
0.000162101
0.000162161
0.000162161
0.000162101
0.000162119
0.000162395
0.000163127
0.000164543
0.000166415
0.000168603
0.000170062
0.000171593
0.00133885
0.0013204
0.00130512
0.00128631
0.00127167
0.00126046
0.00125544
0.00125391
0.00125423
0.00125489
0.00125489
0.00125423
0.00125391
0.00125544
0.00126046
0.00127166
0.00128629
0.00130509
0.00132038
0.00133881
0.00898343
0.00878438
0.00862249
0.00848039
0.0083833
0.00830474
0.00827873
0.00827406
0.00827978
0.00828535
0.00828535
0.00827976
0.00827404
0.0082787
0.00830469
0.00838322
0.0084803
0.00862238
0.00878424
0.00898325
0.0460105
0.0447091
0.0435431
0.0427918
0.0423427
0.0420948
0.0420432
0.0420605
0.0421126
0.0421353
0.0421353
0.0421125
0.0420604
0.0420431
0.0420947
0.0423424
0.0427915
0.0435427
0.0447086
0.0460099
0.151793
0.148172
0.144972
0.14301
0.141999
0.141587
0.141525
0.141659
0.141798
0.14149
0.14149
0.141798
0.141659
0.141525
0.141586
0.141999
0.143009
0.144971
0.148171
0.151792
0.304082
0.30041
0.296941
0.295024
0.294236
0.294102
0.294387
0.294826
0.295216
0.295399
0.295399
0.295216
0.294826
0.294387
0.294102
0.294235
0.295024
0.296941
0.300409
0.304081
0.445141
0.442937
0.440996
0.440097
0.440014
0.440505
0.441247
0.441991
0.442568
0.442869
0.442869
0.442568
0.441991
0.441247
0.440505
0.440014
0.440096
0.440996
0.442937
0.44514
0.554204
0.553542
0.553198
0.553465
0.554245
0.55528
0.556341
0.557256
0.557916
0.558251
0.558251
0.557916
0.557256
0.556341
0.55528
0.554245
0.553465
0.553198
0.553542
0.554204
0.630453
0.630634
0.631196
0.632098
0.633182
0.634283
0.635287
0.636094
0.636651
0.636929
0.636929
0.636651
0.636094
0.635288
0.634283
0.633182
0.632098
0.631196
0.630635
0.630453
0.676961
0.677554
0.67854
0.679716
0.680868
0.681909
0.682827
0.683525
0.683994
0.684226
0.684226
0.683995
0.683527
0.682828
0.68191
0.680868
0.679716
0.67854
0.677554
0.676962
0.713192
0.713868
0.714886
0.715974
0.716977
0.717828
0.718517
0.719028
0.719362
0.719527
0.719527
0.719364
0.719028
0.718517
0.71783
0.716978
0.715975
0.714886
0.713868
0.713192
0.736462
0.737115
0.738056
0.739015
0.739865
0.740562
0.741104
0.741497
0.741752
0.741877
0.741877
0.741753
0.741497
0.741105
0.740562
0.739865
0.739015
0.738056
0.737115
0.736462
0.752651
0.753178
0.753887
0.754592
0.755188
0.755662
0.756019
0.756268
0.756431
0.756519
0.756519
0.756432
0.756269
0.75602
0.755663
0.755188
0.754592
0.753887
0.753178
0.752652
0.762939
0.76328
0.763675
0.764173
0.764623
0.765005
0.765327
0.765544
0.765689
0.765784
0.765783
0.765689
0.765544
0.765327
0.765005
0.764624
0.764173
0.763675
0.763281
0.762939
0.768596
0.768681
0.768783
0.768922
0.769041
0.769134
0.769196
0.769245
0.769277
0.769298
0.769298
0.769277
0.769245
0.769196
0.769133
0.769041
0.768922
0.768783
0.768682
0.768596
0.769841
0.76985
0.769864
0.769882
0.769897
0.769908
0.769916
0.769922
0.769925
0.769928
0.769928
0.769925
0.769922
0.769916
0.769908
0.769897
0.769882
0.769864
0.76985
0.769841
0.769987
0.769987
0.769989
0.76999
0.769991
0.769992
0.769993
0.769994
0.769994
0.769994
0.769994
0.769994
0.769994
0.769993
0.769992
0.769991
0.76999
0.769989
0.769987
0.769987
0.769999
0.769999
0.769999
0.769999
0.769999
0.769999
0.77
0.77
0.769999
0.769999
0.769999
0.769999
0.77
0.77
0.769999
0.769999
0.769999
0.769999
0.769999
0.769999
0.77
0.77
0.77
0.77
0.77
0.77
0.77
0.77
0.77
0.77
0.77
0.77
0.77
0.77
0.77
0.77
0.77
0.77
0.77
0.77
1.23544e-05
1.22691e-05
1.21797e-05
1.20148e-05
1.18789e-05
1.17878e-05
1.17284e-05
1.16995e-05
1.16926e-05
1.16947e-05
1.16947e-05
1.16926e-05
1.16995e-05
1.17284e-05
1.17878e-05
1.18787e-05
1.20146e-05
1.21795e-05
1.22688e-05
1.2354e-05
0.000170066
0.000168633
0.0001673
0.000164904
0.000163033
0.000161814
0.000161007
0.000160627
0.000160551
0.000160597
0.000160597
0.00016055
0.000160626
0.000161006
0.000161813
0.000163031
0.000164902
0.000167297
0.000168629
0.000170061
0.0013204
0.00130218
0.00128812
0.00126748
0.00125306
0.00124418
0.00123818
0.00123567
0.00123549
0.00123625
0.00123625
0.00123549
0.00123567
0.00123818
0.00124417
0.00125304
0.00126746
0.0012881
0.00130216
0.00132037
0.00878438
0.00857422
0.00842455
0.00827235
0.00817887
0.00812674
0.00809142
0.00808186
0.0080849
0.00809394
0.00809394
0.00808489
0.00808184
0.0080914
0.00812669
0.00817881
0.00827227
0.00842445
0.0085741
0.00878423
0.0447091
0.0433008
0.0423034
0.0415307
0.0410742
0.0407349
0.040594
0.0405674
0.0405981
0.0406789
0.0406789
0.0405981
0.0405673
0.0405939
0.0407347
0.041074
0.0415305
0.042303
0.0433004
0.0447086
0.148172
0.143958
0.140464
0.138307
0.137157
0.136625
0.136467
0.136543
0.136802
0.137584
0.137584
0.136802
0.136543
0.136467
0.136625
0.137157
0.138306
0.140464
0.143958
0.148171
0.30041
0.296064
0.292105
0.289892
0.288936
0.288671
0.288855
0.289236
0.289625
0.289934
0.289934
0.289625
0.289236
0.288855
0.288671
0.288936
0.289892
0.292104
0.296064
0.300409
0.442937
0.440321
0.437996
0.436899
0.436686
0.43709
0.437778
0.43849
0.439052
0.439359
0.439359
0.439052
0.438489
0.437778
0.43709
0.436686
0.436899
0.437996
0.440321
0.442937
0.553542
0.552821
0.55233
0.552525
0.553281
0.554313
0.555376
0.556295
0.556958
0.557295
0.557295
0.556958
0.556295
0.555376
0.554313
0.553281
0.552526
0.55233
0.552821
0.553542
0.630634
0.630803
0.631359
0.632279
0.633394
0.63452
0.635541
0.63636
0.636925
0.637207
0.637207
0.636926
0.63636
0.635541
0.63452
0.633394
0.632279
0.631359
0.630803
0.630635
0.677554
0.678195
0.679246
0.680481
0.681701
0.682777
0.683716
0.684433
0.684913
0.685148
0.685148
0.684913
0.684433
0.683717
0.682777
0.681702
0.680481
0.679247
0.678195
0.677555
0.713868
0.714612
0.715711
0.716863
0.717911
0.718791
0.719496
0.720018
0.720359
0.720523
0.720523
0.72036
0.720018
0.719496
0.718792
0.717912
0.716863
0.715711
0.714612
0.713868
0.737115
0.737838
0.738857
0.739867
0.740747
0.741458
0.742008
0.742407
0.74266
0.742776
0.742776
0.74266
0.742408
0.742008
0.741458
0.740747
0.739868
0.738857
0.737838
0.737115
0.753178
0.753749
0.754526
0.755246
0.755845
0.756303
0.756647
0.756891
0.757035
0.757084
0.757083
0.757034
0.75689
0.756647
0.756304
0.755845
0.755246
0.754526
0.753749
0.753178
0.76328
0.76358
0.764134
0.764656
0.765117
0.765495
0.765748
0.76591
0.766018
0.766027
0.766027
0.766018
0.765911
0.765748
0.765494
0.765117
0.764656
0.764134
0.76358
0.763281
0.768681
0.768756
0.768908
0.769041
0.769143
0.769217
0.76929
0.769334
0.769359
0.769364
0.769364
0.769359
0.769334
0.769289
0.769217
0.769143
0.769041
0.768908
0.768756
0.768682
0.76985
0.769861
0.769878
0.769894
0.769906
0.769916
0.769926
0.769931
0.769935
0.769935
0.769935
0.769935
0.769931
0.769926
0.769916
0.769906
0.769894
0.769878
0.769861
0.76985
0.769987
0.769988
0.76999
0.769991
0.769992
0.769993
0.769994
0.769994
0.769995
0.769995
0.769995
0.769995
0.769994
0.769994
0.769993
0.769992
0.769991
0.76999
0.769988
0.769987
0.769999
0.769999
0.769999
0.77
0.769999
0.77
0.769999
0.769999
0.77
0.77
0.77
0.77
0.769999
0.769999
0.77
0.769999
0.77
0.769999
0.769999
0.769999
0.77
0.77
0.77
0.77
0.77
0.77
0.77
0.77
0.77
0.77
0.77
0.77
0.77
0.77
0.77
0.77
0.77
0.77
0.77
0.77
1.22579e-05
1.21797e-05
1.20909e-05
1.19262e-05
1.18022e-05
1.17293e-05
1.16805e-05
1.16538e-05
1.16471e-05
1.16477e-05
1.16477e-05
1.1647e-05
1.16537e-05
1.16804e-05
1.17292e-05
1.18021e-05
1.19261e-05
1.20907e-05
1.21795e-05
1.22576e-05
0.000168606
0.0001673
0.000165913
0.000163513
0.000161826
0.000160896
0.000160243
0.000159876
0.0001598
0.00015982
0.00015982
0.0001598
0.000159875
0.000160242
0.000160895
0.000161825
0.000163511
0.00016591
0.000167297
0.000168602
0.00130512
0.00128812
0.00127194
0.00125114
0.00123833
0.00123239
0.00122759
0.0012246
0.00122429
0.00122461
0.00122461
0.00122429
0.0012246
0.00122759
0.00123239
0.00123832
0.00125112
0.00127192
0.0012881
0.00130509
0.00862249
0.00842455
0.00823501
0.00808147
0.00799903
0.00797372
0.00794277
0.00793454
0.0079363
0.0079403
0.00794029
0.00793629
0.00793453
0.00794275
0.00797368
0.00799899
0.0080814
0.00823492
0.00842444
0.00862236
0.0435431
0.0423034
0.0409323
0.0401389
0.0397551
0.039672
0.0395961
0.0395871
0.0396154
0.0396449
0.0396449
0.0396153
0.0395871
0.039596
0.0396719
0.0397549
0.0401387
0.0409319
0.042303
0.0435427
0.144972
0.140464
0.136726
0.134546
0.133461
0.13303
0.132912
0.132984
0.133119
0.133217
0.133216
0.133119
0.132984
0.132912
0.133029
0.133461
0.134545
0.136726
0.140464
0.144971
0.296941
0.292105
0.28785
0.285549
0.284575
0.284321
0.284514
0.284891
0.285246
0.285455
0.285455
0.285246
0.284891
0.284514
0.284321
0.284574
0.285549
0.287849
0.292104
0.296941
0.440996
0.437996
0.435411
0.434233
0.433995
0.434407
0.43511
0.435831
0.436393
0.436689
0.436689
0.436393
0.435831
0.43511
0.434407
0.433995
0.434233
0.435411
0.437996
0.440996
0.553198
0.55233
0.551738
0.551904
0.552675
0.553734
0.554821
0.555757
0.55643
0.55677
0.55677
0.55643
0.555757
0.554821
0.553734
0.552675
0.551904
0.551738
0.552331
0.553199
0.631196
0.631359
0.63194
0.632907
0.634077
0.63525
0.636295
0.637132
0.637709
0.637995
0.637995
0.637709
0.637132
0.636295
0.635251
0.634077
0.632908
0.63194
0.631359
0.631196
0.67854
0.679246
0.680382
0.68169
0.682979
0.684116
0.685053
0.685791
0.686281
0.686521
0.686521
0.686281
0.685791
0.685054
0.684116
0.682979
0.681691
0.680382
0.679247
0.67854
0.714886
0.715711
0.716895
0.71811
0.719198
0.720101
0.720815
0.721344
0.721689
0.721855
0.721855
0.721689
0.721344
0.720815
0.720102
0.719199
0.71811
0.716896
0.715711
0.714886
0.738056
0.738857
0.739941
0.740989
0.741882
0.742594
0.743149
0.743557
0.743816
0.743939
0.743939
0.743816
0.743557
0.743149
0.742594
0.741882
0.740989
0.739941
0.738857
0.738056
0.753887
0.754526
0.755313
0.756027
0.756598
0.757024
0.757372
0.75764
0.757804
0.757878
0.757878
0.757804
0.75764
0.757372
0.757024
0.756599
0.756027
0.755314
0.754526
0.753887
0.763675
0.764134
0.764682
0.765212
0.765652
0.765925
0.766192
0.76645
0.76657
0.766619
0.766619
0.76657
0.76645
0.766192
0.765925
0.765652
0.765212
0.764682
0.764134
0.763675
0.768783
0.768908
0.769036
0.769155
0.769241
0.769327
0.769385
0.769431
0.769456
0.769466
0.769466
0.769456
0.769431
0.769385
0.769327
0.769241
0.769155
0.769036
0.768908
0.768784
0.769864
0.769878
0.76989
0.769906
0.769919
0.769929
0.769936
0.769941
0.769944
0.769945
0.769945
0.769944
0.769941
0.769936
0.769929
0.769919
0.769906
0.76989
0.769878
0.769864
0.769989
0.76999
0.769991
0.769992
0.769993
0.769994
0.769995
0.769995
0.769995
0.769995
0.769995
0.769995
0.769995
0.769995
0.769994
0.769993
0.769992
0.769991
0.76999
0.769989
0.769999
0.769999
0.769999
0.769999
0.77
0.769999
0.77
0.77
0.77
0.77
0.77
0.77
0.77
0.77
0.769999
0.77
0.769999
0.769999
0.769999
0.769999
0.77
0.77
0.77
0.77
0.77
0.77
0.77
0.77
0.77
0.77
0.77
0.77
0.77
0.77
0.77
0.77
0.77
0.77
0.77
0.77
1.21063e-05
1.20148e-05
1.19262e-05
1.17506e-05
1.16195e-05
1.15394e-05
1.15021e-05
1.14895e-05
1.14846e-05
1.1484e-05
1.1484e-05
1.14846e-05
1.14895e-05
1.15021e-05
1.15394e-05
1.16194e-05
1.17504e-05
1.19261e-05
1.20146e-05
1.2106e-05
0.000166418
0.000164904
0.000163513
0.000160932
0.000159118
0.000158051
0.000157589
0.000157465
0.000157411
0.000157411
0.000157411
0.000157411
0.000157465
0.000157588
0.00015805
0.000159117
0.00016093
0.000163511
0.000164901
0.000166414
0.00128631
0.00126748
0.00125114
0.00122888
0.0012147
0.00120694
0.00120429
0.0012043
0.00120415
0.00120432
0.00120432
0.00120415
0.00120429
0.00120428
0.00120693
0.00121469
0.00122887
0.00125112
0.00126746
0.00128629
0.00848039
0.00827235
0.00808147
0.00792313
0.0078303
0.00778509
0.00777764
0.00777272
0.00777415
0.00777666
0.00777666
0.00777414
0.00777271
0.00777762
0.00778506
0.00783026
0.00792307
0.0080814
0.00827226
0.00848028
0.0427918
0.0415307
0.0401389
0.039352
0.0389221
0.0387227
0.0386506
0.0386417
0.038665
0.0386844
0.0386844
0.0386649
0.0386416
0.0386506
0.0387226
0.038922
0.0393518
0.0401387
0.0415305
0.0427915
0.14301
0.138307
0.134546
0.132382
0.131299
0.130852
0.130741
0.130818
0.130949
0.131033
0.131033
0.130949
0.130818
0.130741
0.130852
0.131299
0.132382
0.134545
0.138306
0.143009
0.295024
0.289892
0.285549
0.283271
0.282327
0.282098
0.282315
0.282704
0.283059
0.283255
0.283255
0.283059
0.282704
0.282315
0.282098
0.282327
0.283271
0.285549
0.289892
0.295024
0.440097
0.436899
0.434233
0.433059
0.432841
0.433282
0.434008
0.434743
0.435312
0.435607
0.435607
0.435312
0.434743
0.434008
0.433282
0.432841
0.433059
0.434234
0.4369
0.440097
0.553465
0.552525
0.551904
0.552094
0.55291
0.554011
0.555129
0.556082
0.556763
0.557106
0.557106
0.556763
0.556082
0.555129
0.554012
0.55291
0.552094
0.551904
0.552526
0.553466
0.632098
0.632279
0.632907
0.633932
0.635152
0.636363
0.637428
0.63827
0.638849
0.639135
0.639135
0.638849
0.63827
0.637429
0.636364
0.635152
0.633932
0.632908
0.632279
0.632098
0.679716
0.680481
0.68169
0.683058
0.684394
0.685568
0.686523
0.687245
0.687739
0.68798
0.68798
0.687739
0.687245
0.686523
0.685568
0.684394
0.683058
0.681691
0.680481
0.679716
0.715974
0.716863
0.71811
0.719363
0.720472
0.721384
0.722095
0.722616
0.722956
0.72312
0.72312
0.722956
0.722616
0.722096
0.721384
0.720472
0.719364
0.71811
0.716863
0.715974
0.739015
0.739867
0.740989
0.742049
0.742942
0.74365
0.744201
0.744598
0.744852
0.744972
0.744972
0.744852
0.744598
0.744201
0.74365
0.742942
0.74205
0.740989
0.739867
0.739015
0.754592
0.755246
0.756027
0.756714
0.757262
0.757682
0.758038
0.758292
0.758452
0.758527
0.758527
0.758452
0.758292
0.758038
0.757682
0.757262
0.756714
0.756027
0.755246
0.754592
0.764173
0.764656
0.765212
0.765725
0.766099
0.766395
0.766666
0.766824
0.766912
0.766952
0.766952
0.766912
0.766824
0.766666
0.766395
0.766099
0.765725
0.765212
0.764656
0.764173
0.768922
0.769041
0.769155
0.769255
0.769359
0.769419
0.769471
0.7695
0.769517
0.769524
0.769524
0.769517
0.7695
0.769471
0.769419
0.769359
0.769255
0.769155
0.769041
0.768922
0.769882
0.769894
0.769906
0.76992
0.769932
0.769939
0.769945
0.769948
0.76995
0.769951
0.769951
0.76995
0.769948
0.769945
0.769939
0.769932
0.76992
0.769906
0.769894
0.769882
0.76999
0.769991
0.769992
0.769993
0.769994
0.769995
0.769995
0.769995
0.769996
0.769996
0.769996
0.769996
0.769995
0.769995
0.769995
0.769994
0.769993
0.769992
0.769991
0.76999
0.769999
0.77
0.769999
0.77
0.769999
0.77
0.77
0.77
0.77
0.77
0.77
0.77
0.77
0.77
0.77
0.769999
0.77
0.769999
0.77
0.769999
0.77
0.77
0.77
0.77
0.77
0.77
0.77
0.77
0.77
0.77
0.77
0.77
0.77
0.77
0.77
0.77
0.77
0.77
0.77
0.77
1.19712e-05
1.18789e-05
1.18022e-05
1.16195e-05
1.14916e-05
1.14109e-05
1.13687e-05
1.13506e-05
1.13453e-05
1.13446e-05
1.13446e-05
1.13453e-05
1.13506e-05
1.13686e-05
1.14108e-05
1.14915e-05
1.16194e-05
1.1802e-05
1.18787e-05
1.1971e-05
0.000164545
0.000163033
0.000161826
0.000159118
0.000157372
0.00015628
0.000155721
0.000155488
0.00015542
0.000155417
0.000155417
0.00015542
0.000155488
0.000155721
0.00015628
0.000157371
0.000159116
0.000161825
0.000163031
0.000164542
0.00127167
0.00125306
0.00123833
0.0012147
0.00120113
0.00119298
0.00118905
0.00118758
0.00118732
0.00118743
0.00118743
0.00118732
0.00118758
0.00118905
0.00119298
0.00120112
0.00121469
0.00123832
0.00125304
0.00127165
0.0083833
0.00817887
0.00799903
0.0078303
0.00774038
0.00769129
0.00767017
0.00766374
0.00766473
0.00766681
0.00766681
0.00766472
0.00766374
0.00767016
0.00769127
0.00774035
0.00783026
0.00799898
0.0081788
0.00838321
0.0423427
0.0410742
0.0397551
0.0389221
0.0384941
0.0382895
0.0382144
0.0382057
0.0382281
0.0382459
0.0382459
0.038228
0.0382057
0.0382143
0.0382894
0.038494
0.038922
0.0397549
0.041074
0.0423424
0.141999
0.137157
0.133461
0.131299
0.130228
0.129788
0.129682
0.12976
0.129888
0.129968
0.129968
0.129888
0.12976
0.129682
0.129788
0.130228
0.131299
0.133461
0.137157
0.141999
0.294236
0.288936
0.284575
0.282327
0.281408
0.281195
0.281421
0.281813
0.282165
0.282357
0.282357
0.282165
0.281813
0.281421
0.281195
0.281409
0.282327
0.284575
0.288936
0.294236
0.440014
0.436686
0.433995
0.432841
0.432646
0.433108
0.433846
0.434585
0.435152
0.435445
0.435445
0.435152
0.434585
0.433846
0.433108
0.432647
0.432841
0.433995
0.436687
0.440015
0.554245
0.553281
0.552675
0.55291
0.553769
0.554901
0.556034
0.556992
0.557673
0.558014
0.558014
0.557673
0.556992
0.556034
0.554901
0.553769
0.55291
0.552675
0.553282
0.554245
0.633182
0.633394
0.634077
0.635152
0.636407
0.637637
0.638706
0.639544
0.640115
0.640397
0.640397
0.640115
0.639544
0.638706
0.637637
0.636407
0.635152
0.634077
0.633394
0.633182
0.680868
0.681701
0.682979
0.684394
0.685752
0.686937
0.687898
0.688611
0.689091
0.689329
0.689329
0.689091
0.688611
0.687898
0.686937
0.685752
0.684394
0.682979
0.681702
0.680868
0.716977
0.717911
0.719198
0.720472
0.721586
0.722494
0.723194
0.723702
0.724031
0.72419
0.72419
0.724031
0.723702
0.723195
0.722494
0.721586
0.720472
0.719199
0.717912
0.716978
0.739865
0.740747
0.741882
0.742942
0.743833
0.744535
0.74507
0.745451
0.745694
0.74581
0.74581
0.745694
0.745451
0.74507
0.744535
0.743833
0.742942
0.741882
0.740747
0.739865
0.755188
0.755845
0.756598
0.757262
0.757815
0.758246
0.758582
0.758821
0.758973
0.759044
0.759044
0.758973
0.758821
0.758582
0.758246
0.757815
0.757262
0.756599
0.755845
0.755188
0.764623
0.765117
0.765652
0.766099
0.766512
0.766777
0.766964
0.767084
0.767157
0.767189
0.767189
0.767157
0.767084
0.766963
0.766777
0.766512
0.766099
0.765652
0.765117
0.764624
0.769041
0.769143
0.769241
0.769359
0.769437
0.769489
0.769525
0.769548
0.769562
0.769569
0.769569
0.769562
0.769548
0.769525
0.769489
0.769437
0.769359
0.769241
0.769143
0.769041
0.769897
0.769906
0.769919
0.769932
0.769941
0.769947
0.769951
0.769954
0.769955
0.769956
0.769956
0.769955
0.769954
0.769951
0.769947
0.769941
0.769932
0.769919
0.769906
0.769897
0.769991
0.769992
0.769993
0.769994
0.769995
0.769996
0.769996
0.769996
0.769996
0.769996
0.769996
0.769996
0.769996
0.769996
0.769996
0.769995
0.769994
0.769993
0.769992
0.769991
0.769999
0.769999
0.77
0.769999
0.77
0.77
0.77
0.77
0.77
0.77
0.77
0.77
0.77
0.77
0.77
0.77
0.769999
0.77
0.769999
0.769999
0.77
0.77
0.77
0.77
0.77
0.77
0.77
0.77
0.77
0.77
0.77
0.77
0.77
0.77
0.77
0.77
0.77
0.77
0.77
0.77
1.18692e-05
1.17878e-05
1.17293e-05
1.15394e-05
1.14109e-05
1.13323e-05
1.12913e-05
1.12735e-05
1.12683e-05
1.12677e-05
1.12677e-05
1.12683e-05
1.12735e-05
1.12913e-05
1.13323e-05
1.14108e-05
1.15393e-05
1.17292e-05
1.17877e-05
1.1869e-05
0.000163128
0.000161814
0.000160896
0.000158051
0.00015628
0.000155222
0.000154681
0.000154452
0.000154389
0.000154387
0.000154387
0.000154389
0.000154452
0.000154681
0.000155222
0.00015628
0.00015805
0.000160895
0.000161812
0.000163126
0.00126046
0.00124418
0.00123239
0.00120694
0.00119298
0.00118504
0.00118119
0.00117973
0.00117947
0.00117958
0.00117958
0.00117947
0.00117973
0.00118119
0.00118504
0.00119298
0.00120693
0.00123239
0.00124417
0.00126045
0.00830474
0.00812674
0.00797372
0.00778509
0.00769129
0.00764276
0.00762145
0.00761506
0.00761587
0.00761776
0.00761776
0.00761587
0.00761506
0.00762144
0.00764274
0.00769127
0.00778506
0.00797369
0.00812668
0.00830467
0.0420948
0.0407349
0.039672
0.0387227
0.0382895
0.0380862
0.0380113
0.0380019
0.0380226
0.038039
0.038039
0.0380226
0.0380019
0.0380113
0.0380862
0.0382894
0.0387226
0.0396719
0.0407347
0.0420946
0.141587
0.136625
0.13303
0.130852
0.129788
0.129352
0.129246
0.129319
0.129441
0.129517
0.129517
0.129441
0.129318
0.129246
0.129351
0.129788
0.130852
0.13303
0.136625
0.141587
0.294102
0.288671
0.284321
0.282098
0.281195
0.280988
0.281215
0.281603
0.28195
0.282138
0.282138
0.28195
0.281603
0.281215
0.280988
0.281195
0.282098
0.284321
0.288671
0.294103
0.440505
0.43709
0.434407
0.433282
0.433108
0.433583
0.434323
0.435057
0.435618
0.435906
0.435906
0.435618
0.435057
0.434323
0.433583
0.433109
0.433282
0.434407
0.43709
0.440506
0.55528
0.554313
0.553734
0.554011
0.554901
0.556047
0.557182
0.558135
0.558809
0.559146
0.559146
0.558809
0.558135
0.557182
0.556047
0.554901
0.554012
0.553734
0.554313
0.555281
0.634283
0.63452
0.63525
0.636363
0.637637
0.638869
0.639931
0.640758
0.641318
0.641595
0.641595
0.641318
0.640758
0.639931
0.638869
0.637637
0.636364
0.635251
0.63452
0.634284
0.681909
0.682777
0.684116
0.685568
0.686937
0.688123
0.689074
0.68978
0.690245
0.690477
0.690477
0.690245
0.68978
0.689074
0.688123
0.686937
0.685568
0.684116
0.682777
0.68191
0.717828
0.718791
0.720101
0.721384
0.722494
0.723389
0.724075
0.724568
0.724885
0.725038
0.725038
0.724885
0.724568
0.724075
0.723389
0.722494
0.721384
0.720102
0.718792
0.71783
0.740562
0.741458
0.742594
0.74365
0.744535
0.745227
0.745745
0.746112
0.746345
0.746455
0.746455
0.746345
0.746112
0.745746
0.745227
0.744535
0.74365
0.742594
0.741458
0.740562
0.755662
0.756303
0.757024
0.757682
0.758246
0.758679
0.759002
0.75923
0.759374
0.759442
0.759442
0.759374
0.75923
0.759002
0.758678
0.758246
0.757682
0.757023
0.756303
0.755662
0.765005
0.765495
0.765925
0.766395
0.766777
0.767009
0.767166
0.76727
0.767333
0.767362
0.767362
0.767333
0.76727
0.767166
0.767009
0.766777
0.766395
0.765925
0.765494
0.765005
0.769134
0.769217
0.769327
0.769419
0.769489
0.769533
0.769564
0.769584
0.769597
0.769602
0.769602
0.769597
0.769584
0.769564
0.769533
0.769489
0.769419
0.769327
0.769217
0.769133
0.769908
0.769916
0.769929
0.769939
0.769947
0.769952
0.769955
0.769958
0.769959
0.76996
0.76996
0.769959
0.769958
0.769955
0.769952
0.769947
0.769939
0.769929
0.769916
0.769908
0.769992
0.769993
0.769994
0.769995
0.769996
0.769996
0.769996
0.769996
0.769997
0.769996
0.769996
0.769997
0.769996
0.769996
0.769996
0.769996
0.769995
0.769994
0.769993
0.769992
0.769999
0.77
0.769999
0.77
0.77
0.77
0.77
0.769999
0.769999
0.77
0.77
0.769999
0.769999
0.77
0.77
0.77
0.77
0.769999
0.77
0.769999
0.77
0.77
0.77
0.77
0.77
0.77
0.77
0.77
0.77
0.77
0.77
0.77
0.77
0.77
0.77
0.77
0.77
0.77
0.77
0.77
1.18137e-05
1.17284e-05
1.16805e-05
1.15021e-05
1.13687e-05
1.12913e-05
1.12518e-05
1.12345e-05
1.12291e-05
1.12281e-05
1.12281e-05
1.12291e-05
1.12345e-05
1.12518e-05
1.12913e-05
1.13686e-05
1.1502e-05
1.16804e-05
1.17283e-05
1.18135e-05
0.000162396
0.000161007
0.000160243
0.000157589
0.000155721
0.000154681
0.00015416
0.00015394
0.000153875
0.000153866
0.000153866
0.000153875
0.00015394
0.00015416
0.000154681
0.000155721
0.000157588
0.000160242
0.000161006
0.000162394
0.00125544
0.00123818
0.00122759
0.00120429
0.00118905
0.00118119
0.00117746
0.00117602
0.00117573
0.00117578
0.00117578
0.00117573
0.00117602
0.00117745
0.00118119
0.00118905
0.00120428
0.00122759
0.00123817
0.00125543
0.00827873
0.00809142
0.00794277
0.00777764
0.00767017
0.00762145
0.00760032
0.00759385
0.00759422
0.00759568
0.00759568
0.00759422
0.00759385
0.00760031
0.00762144
0.00767016
0.00777762
0.00794275
0.00809139
0.00827868
0.0420432
0.040594
0.0395961
0.0386506
0.0382144
0.0380113
0.0379356
0.0379244
0.0379424
0.0379567
0.0379567
0.0379424
0.0379244
0.0379355
0.0380113
0.0382143
0.0386506
0.039596
0.0405939
0.0420431
0.141525
0.136467
0.132912
0.130741
0.129682
0.129246
0.129137
0.129203
0.129319
0.12939
0.12939
0.129319
0.129203
0.129137
0.129246
0.129682
0.130741
0.132912
0.136467
0.141525
0.294387
0.288855
0.284514
0.282315
0.281421
0.281215
0.281434
0.281811
0.282148
0.28233
0.28233
0.282148
0.281811
0.281434
0.281215
0.281421
0.282315
0.284515
0.288856
0.294387
0.441247
0.437778
0.43511
0.434008
0.433846
0.434323
0.435055
0.435778
0.436329
0.436612
0.436612
0.436329
0.435778
0.435055
0.434323
0.433847
0.434009
0.43511
0.437778
0.441248
0.556341
0.555376
0.554821
0.555129
0.556034
0.557182
0.558308
0.559251
0.559917
0.560248
0.560248
0.559917
0.559251
0.558309
0.557182
0.556035
0.555129
0.554821
0.555377
0.556342
0.635287
0.635541
0.636295
0.637428
0.638706
0.639931
0.640981
0.641794
0.642344
0.642614
0.642614
0.642344
0.641794
0.640981
0.639931
0.638707
0.637429
0.636295
0.635542
0.635289
0.682827
0.683716
0.685053
0.686523
0.687898
0.689074
0.690013
0.690709
0.691165
0.69139
0.69139
0.691165
0.690709
0.690013
0.689074
0.687898
0.686523
0.685054
0.683717
0.682828
0.718517
0.719496
0.720815
0.722095
0.723194
0.724075
0.724745
0.725226
0.725533
0.725681
0.725681
0.725533
0.725226
0.724746
0.724075
0.723195
0.722096
0.720815
0.719496
0.718518
0.741104
0.742008
0.743149
0.744201
0.74507
0.745745
0.746248
0.746601
0.746826
0.746932
0.746932
0.746826
0.746602
0.746248
0.745745
0.74507
0.744201
0.743149
0.742009
0.741105
0.756019
0.756647
0.757372
0.758038
0.758582
0.759002
0.759313
0.759532
0.759669
0.759734
0.759734
0.759669
0.759532
0.759313
0.759002
0.758582
0.758038
0.757372
0.756647
0.75602
0.765327
0.765748
0.766192
0.766666
0.766964
0.767166
0.767305
0.767399
0.767457
0.767484
0.767484
0.767457
0.7674
0.767306
0.767166
0.766963
0.766666
0.766192
0.765748
0.765327
0.769196
0.76929
0.769385
0.769471
0.769525
0.769564
0.769591
0.769609
0.769621
0.769626
0.769626
0.769621
0.769609
0.769591
0.769564
0.769525
0.769471
0.769385
0.76929
0.769196
0.769916
0.769926
0.769936
0.769945
0.769951
0.769955
0.769958
0.769961
0.769962
0.769962
0.769962
0.769962
0.769961
0.769958
0.769955
0.769951
0.769945
0.769936
0.769926
0.769916
0.769993
0.769994
0.769995
0.769995
0.769996
0.769996
0.769997
0.769997
0.769997
0.769997
0.769997
0.769997
0.769997
0.769997
0.769996
0.769996
0.769995
0.769995
0.769994
0.769993
0.77
0.769999
0.77
0.77
0.77
0.77
0.769999
0.77
0.77
0.77
0.77
0.77
0.77
0.769999
0.77
0.77
0.77
0.77
0.769999
0.77
0.77
0.77
0.77
0.77
0.77
0.77
0.77
0.77
0.77
0.77
0.77
0.77
0.77
0.77
0.77
0.77
0.77
0.77
0.77
0.77
1.17914e-05
1.16995e-05
1.16538e-05
1.14895e-05
1.13506e-05
1.12735e-05
1.12345e-05
1.12171e-05
1.12108e-05
1.12083e-05
1.12083e-05
1.12108e-05
1.12171e-05
1.12345e-05
1.12735e-05
1.13506e-05
1.14895e-05
1.16537e-05
1.16994e-05
1.17912e-05
0.00016212
0.000160627
0.000159876
0.000157465
0.000155488
0.000154452
0.00015394
0.000153717
0.000153638
0.000153607
0.000153607
0.000153638
0.000153717
0.00015394
0.000154452
0.000155487
0.000157465
0.000159875
0.000160625
0.000162118
0.00125391
0.00123567
0.0012246
0.0012043
0.00118758
0.00117973
0.00117602
0.00117455
0.00117415
0.00117402
0.00117402
0.00117415
0.00117455
0.00117602
0.00117973
0.00118758
0.00120429
0.00122459
0.00123566
0.0012539
0.00827406
0.00808186
0.00793454
0.00777272
0.00766374
0.00761506
0.00759385
0.007587
0.00758661
0.0075871
0.0075871
0.00758661
0.007587
0.00759385
0.00761505
0.00766373
0.00777271
0.00793453
0.00808183
0.00827402
0.0420605
0.0405674
0.0395871
0.0386417
0.0382057
0.0380019
0.0379244
0.0379112
0.0379264
0.0379384
0.0379384
0.0379264
0.0379112
0.0379244
0.0380019
0.0382057
0.0386417
0.0395871
0.0405673
0.0420604
0.141659
0.136543
0.132984
0.130818
0.12976
0.129319
0.129203
0.129257
0.12936
0.129422
0.129422
0.12936
0.129257
0.129203
0.129319
0.12976
0.130818
0.132984
0.136543
0.141659
0.294826
0.289236
0.284891
0.282704
0.281813
0.281603
0.281811
0.282175
0.282499
0.282674
0.282674
0.282499
0.282175
0.281811
0.281603
0.281813
0.282705
0.284892
0.289236
0.294827
0.441991
0.43849
0.435831
0.434743
0.434585
0.435057
0.435778
0.436489
0.43703
0.437306
0.437306
0.43703
0.436489
0.435778
0.435057
0.434585
0.434744
0.435831
0.43849
0.441991
0.557256
0.556295
0.555757
0.556082
0.556992
0.558135
0.559251
0.560183
0.560838
0.561165
0.561165
0.560839
0.560183
0.559251
0.558135
0.556992
0.556082
0.555758
0.556296
0.557257
0.636094
0.63636
0.637132
0.63827
0.639544
0.640758
0.641794
0.642595
0.643135
0.643401
0.643401
0.643135
0.642595
0.641794
0.640758
0.639545
0.638271
0.637133
0.636361
0.636095
0.683525
0.684433
0.685791
0.687245
0.688611
0.68978
0.690709
0.691394
0.691843
0.692063
0.692063
0.691843
0.691395
0.690709
0.689781
0.688612
0.687245
0.685791
0.684433
0.683527
0.719028
0.720018
0.721344
0.722616
0.723702
0.724568
0.725226
0.725694
0.725994
0.726138
0.726138
0.725994
0.725694
0.725226
0.724568
0.723702
0.722616
0.721344
0.720019
0.719029
0.741497
0.742407
0.743557
0.744598
0.745451
0.746112
0.746601
0.746946
0.747164
0.747266
0.747266
0.747164
0.746946
0.746602
0.746112
0.745451
0.744598
0.743557
0.742408
0.741498
0.756268
0.756891
0.75764
0.758292
0.758821
0.75923
0.759532
0.759743
0.759875
0.759937
0.759937
0.759876
0.759743
0.759532
0.75923
0.758821
0.758292
0.75764
0.756891
0.756268
0.765544
0.76591
0.76645
0.766824
0.767084
0.76727
0.767399
0.767487
0.767542
0.767566
0.767566
0.767542
0.767487
0.7674
0.767269
0.767084
0.766824
0.76645
0.76591
0.765544
0.769245
0.769334
0.769431
0.7695
0.769548
0.769584
0.769609
0.769627
0.769637
0.769642
0.769642
0.769637
0.769627
0.769609
0.769584
0.769548
0.7695
0.769431
0.769334
0.769244
0.769922
0.769931
0.769941
0.769948
0.769954
0.769958
0.769961
0.769962
0.769963
0.769964
0.769964
0.769963
0.769962
0.769961
0.769958
0.769954
0.769948
0.769941
0.769931
0.769922
0.769994
0.769994
0.769995
0.769995
0.769996
0.769996
0.769997
0.769997
0.769997
0.769997
0.769997
0.769997
0.769997
0.769997
0.769996
0.769996
0.769995
0.769995
0.769994
0.769994
0.77
0.769999
0.77
0.77
0.77
0.769999
0.77
0.77
0.77
0.77
0.77
0.77
0.77
0.77
0.769999
0.77
0.77
0.77
0.769999
0.77
0.77
0.77
0.77
0.77
0.77
0.77
0.77
0.77
0.77
0.77
0.77
0.77
0.77
0.77
0.77
0.77
0.77
0.77
0.77
0.77
1.17882e-05
1.16926e-05