/*--------------------------------*- C++ -*----------------------------------*\
  =========                 |
  \\      /  F ield         | OpenFOAM: The Open Source CFD Toolbox
   \\    /   O peration     | Website:  https://openfoam.org
    \\  /    A nd           | Version:  7
     \\/     M anipulation  |
\*---------------------------------------------------------------------------*/
FoamFile
{
    version     2.0;
    format      ascii;
    class       volScalarField;
    location    "0.5/newMesh";
    object      T;
}
// * * * * * * * * * * * * * * * * * * * * * * * * * * * * * * * * * * * * * //

dimensions      [0 0 0 1 0 0 0];

internalField   nonuniform List<scalar> 
8000
(
300
293.18
293.18
293.179
293.177
293.176
293.176
293.176
293.176
293.176
293.176
293.176
293.176
293.176
293.176
293.177
293.179
293.18
293.18
293.181
294.53
294.527
294.522
294.512
294.501
294.493
294.489
294.487
294.487
294.487
294.487
294.487
294.487
294.489
294.493
294.501
294.512
294.522
294.527
294.53
300.629
300.597
300.561
300.501
300.448
300.407
300.387
300.381
300.382
300.384
300.384
300.382
300.381
300.387
300.407
300.448
300.501
300.561
300.597
300.629
325.687
325.375
325.076
324.765
324.536
324.364
324.303
324.295
324.31
324.323
324.323
324.31
324.295
324.303
324.364
324.536
324.765
325.076
325.375
325.687
404.507
402.873
401.262
400.108
399.401
399.026
398.956
399.007
399.103
399.144
399.144
399.103
399.007
398.956
399.026
399.401
400.108
401.262
402.872
404.507
565.79
561.927
558.248
555.909
554.719
554.29
554.319
554.581
554.819
554.564
554.564
554.819
554.581
554.319
554.29
554.719
555.909
558.247
561.926
565.789
781.806
777.475
773.247
770.934
770.108
770.187
770.822
771.61
772.268
772.582
772.582
772.268
771.61
770.821
770.187
770.107
770.933
773.247
777.474
781.805
1025.05
1021.73
1018.86
1017.82
1018.22
1019.64
1021.42
1023.11
1024.39
1025.05
1025.05
1024.39
1023.11
1021.42
1019.64
1018.22
1017.82
1018.86
1021.73
1025.05
1285.31
1284.32
1284.32
1286.05
1289.03
1292.57
1296.05
1298.99
1301.09
1302.16
1302.16
1301.09
1298.99
1296.05
1292.57
1289.03
1286.05
1284.32
1284.32
1285.31
1542.81
1544.22
1547.48
1552.11
1557.33
1562.46
1567.05
1570.7
1573.22
1574.47
1574.47
1573.22
1570.7
1567.05
1562.46
1557.33
1552.11
1547.48
1544.22
1542.81
1744.53
1747.69
1752.9
1759.03
1764.97
1770.29
1774.97
1778.52
1780.9
1782.08
1782.08
1780.9
1778.52
1774.97
1770.29
1764.97
1759.03
1752.9
1747.69
1744.53
1880.25
1881.47
1883.23
1885.02
1886.6
1887.9
1888.98
1889.79
1890.33
1890.59
1890.59
1890.33
1889.79
1888.98
1887.9
1886.6
1885.02
1883.23
1881.47
1880.25
1736.58
1724.46
1706.13
1686.55
1668.53
1653.29
1641.22
1632.36
1626.55
1623.71
1623.71
1626.55
1632.36
1641.22
1653.29
1668.53
1686.55
1706.13
1724.46
1736.58
1291.38
1274.85
1251.01
1225.93
1203.61
1185.1
1170.81
1160.61
1153.99
1150.72
1150.72
1153.99
1160.61
1170.8
1185.1
1203.6
1225.93
1251.01
1274.85
1291.38
830.17
814.659
794.509
768.621
743.907
722.275
704.018
691.176
682.861
678.756
678.753
682.855
691.173
704.017
722.273
743.905
768.62
794.508
814.659
830.169
457.346
451.013
442.472
430.563
419.658
410.772
404.466
399.549
396.343
394.797
394.795
396.341
399.548
404.465
410.771
419.657
430.562
442.471
451.012
457.345
323.413
322.327
320.361
317.767
315.495
313.659
312.36
311.345
310.692
310.381
310.38
310.692
311.344
312.36
313.659
315.495
317.767
320.36
322.327
323.412
297.289
297.138
296.856
296.489
296.156
295.887
295.694
295.546
295.45
295.405
295.405
295.45
295.545
295.694
295.887
296.156
296.489
296.855
297.138
297.289
293.54
293.521
293.486
293.441
293.399
293.366
293.34
293.321
293.309
293.303
293.303
293.309
293.321
293.34
293.366
293.399
293.441
293.486
293.521
293.54
293.044
293.043
293.04
293.036
293.033
293.03
293.028
293.026
293.025
293.025
293.025
293.025
293.026
293.028
293.03
293.033
293.036
293.04
293.043
293.044
293.18
293.18
293.18
293.178
293.177
293.176
293.175
293.175
293.175
293.175
293.175
293.175
293.175
293.175
293.176
293.177
293.178
293.18
293.18
293.18
294.527
294.524
294.52
294.508
294.497
294.489
294.484
294.482
294.481
294.481
294.481
294.481
294.482
294.484
294.489
294.497
294.508
294.52
294.524
294.527
300.597
300.567
300.532
300.463
300.407
300.369
300.345
300.336
300.335
300.337
300.337
300.335
300.336
300.345
300.369
300.407
300.463
300.532
300.567
300.597
325.375
325.04
324.744
324.398
324.161
324.014
323.931
323.909
323.918
323.938
323.938
323.918
323.909
323.93
324.013
324.16
324.397
324.744
325.04
325.375
402.873
401.05
399.545
398.318
397.57
397.057
396.864
396.85
396.918
397.032
397.032
396.918
396.85
396.864
397.057
397.57
398.317
399.544
401.05
402.872
561.927
557.405
553.328
550.711
549.329
548.74
548.64
548.824
549.167
549.931
549.931
549.167
548.824
548.639
548.739
549.328
550.711
553.327
557.404
561.926
777.475
772.34
767.486
764.779
763.717
763.612
764.106
764.806
765.451
765.902
765.902
765.451
764.806
764.105
763.612
763.716
764.778
767.485
772.339
777.475
1021.73
1017.73
1014.22
1012.83
1013
1014.25
1015.92
1017.53
1018.77
1019.43
1019.43
1018.77
1017.53
1015.92
1014.25
1013
1012.83
1014.22
1017.72
1021.73
1284.32
1283.1
1282.74
1284.29
1287.2
1290.72
1294.19
1297.13
1299.23
1300.3
1300.3
1299.23
1297.13
1294.19
1290.72
1287.2
1284.29
1282.74
1283.1
1284.32
1544.22
1545.58
1548.85
1553.55
1558.89
1564.12
1568.78
1572.48
1575.02
1576.29
1576.29
1575.02
1572.48
1568.78
1564.12
1558.89
1553.55
1548.84
1545.58
1544.22
1747.69
1751.05
1756.54
1762.92
1769.17
1774.64
1779.41
1783.03
1785.46
1786.66
1786.66
1785.46
1783.03
1779.41
1774.64
1769.17
1762.92
1756.54
1751.05
1747.69
1881.47
1882.72
1884.47
1886.25
1887.81
1889.08
1890.11
1890.88
1891.39
1891.64
1891.64
1891.39
1890.88
1890.11
1889.08
1887.81
1886.25
1884.47
1882.72
1881.47
1724.46
1710.95
1690.88
1669.99
1651.05
1635.21
1622.75
1613.58
1607.56
1604.61
1604.61
1607.56
1613.58
1622.75
1635.21
1651.05
1669.98
1690.88
1710.95
1724.46
1274.85
1256.75
1230.45
1204.38
1181.51
1163
1148.88
1138.71
1132
1128.74
1128.74
1132
1138.7
1148.88
1162.99
1181.5
1204.38
1230.45
1256.75
1274.85
814.659
800.134
773.101
745.217
719.48
697.155
681.309
670.883
662.973
658.917
658.916
662.971
670.882
681.308
697.153
719.478
745.216
773.101
800.134
814.658
451.013
445.147
433.157
421.178
411.222
403.531
396.353
391.655
388.662
387.169
387.169
388.662
391.655
396.352
403.529
411.221
421.178
433.157
445.146
451.012
322.327
320.934
318.616
316.295
314.256
312.529
310.938
309.952
309.345
309.055
309.055
309.346
309.952
310.938
312.528
314.256
316.295
318.616
320.933
322.327
297.138
296.948
296.658
296.311
296.014
295.751
295.517
295.371
295.282
295.24
295.24
295.282
295.371
295.517
295.751
296.014
296.311
296.658
296.948
297.138
293.521
293.499
293.464
293.421
293.382
293.348
293.319
293.301
293.289
293.284
293.284
293.289
293.301
293.319
293.348
293.382
293.421
293.464
293.499
293.521
293.043
293.041
293.038
293.035
293.031
293.029
293.026
293.025
293.024
293.023
293.023
293.024
293.025
293.026
293.029
293.031
293.035
293.038
293.041
293.043
293.18
293.18
293.179
293.178
293.176
293.176
293.175
293.175
293.175
293.175
293.175
293.175
293.175
293.175
293.176
293.176
293.178
293.179
293.18
293.18
294.522
294.52
294.515
294.502
294.491
294.484
294.48
294.478
294.477
294.477
294.477
294.477
294.478
294.48
294.484
294.491
294.502
294.515
294.52
294.522
300.561
300.532
300.489
300.415
300.362
300.331
300.31
300.299
300.297
300.298
300.298
300.297
300.299
300.31
300.331
300.362
300.415
300.489
300.532
300.561
325.076
324.744
324.372
323.999
323.773
323.675
323.596
323.575
323.58
323.59
323.59
323.58
323.575
323.596
323.675
323.773
323.998
324.372
324.744
325.076
401.262
399.545
397.584
396.257
395.568
395.35
395.229
395.23
395.292
395.349
395.349
395.292
395.23
395.229
395.35
395.567
396.257
397.584
399.544
401.262
558.248
553.328
548.86
546.114
544.74
544.229
544.151
544.319
544.553
544.726
544.726
544.553
544.319
544.15
544.229
544.739
546.114
548.86
553.327
558.247
773.247
767.486
762.189
759.299
758.164
758.035
758.51
759.187
759.785
760.13
760.13
759.784
759.186
758.51
758.035
758.164
759.298
762.189
767.485
773.247
1018.86
1014.22
1010.25
1008.68
1008.77
1010
1011.66
1013.27
1014.49
1015.13
1015.13
1014.49
1013.27
1011.66
1010
1008.77
1008.68
1010.25
1014.22
1018.86
1284.32
1282.74
1282.13
1283.6
1286.53
1290.11
1293.63
1296.6
1298.71
1299.78
1299.78
1298.71
1296.6
1293.63
1290.11
1286.53
1283.6
1282.13
1282.74
1284.32
1547.48
1548.85
1552.23
1557.13
1562.7
1568.11
1572.86
1576.64
1579.22
1580.51
1580.51
1579.22
1576.64
1572.86
1568.11
1562.69
1557.13
1552.23
1548.84
1547.48
1752.9
1756.54
1762.38
1769.08
1775.63
1781.38
1786.11
1789.82
1792.28
1793.49
1793.49
1792.28
1789.81
1786.11
1781.38
1775.63
1769.08
1762.38
1756.54
1752.9
1883.23
1884.47
1886.18
1887.89
1889.38
1890.57
1891.48
1892.14
1892.58
1892.79
1892.79
1892.58
1892.14
1891.48
1890.57
1889.37
1887.89
1886.18
1884.47
1883.23
1706.13
1690.88
1669.01
1646.82
1627.05
1610.68
1597.76
1588.15
1581.88
1578.84
1578.84
1581.88
1588.14
1597.76
1610.68
1627.05
1646.82
1669.01
1690.88
1706.13
1251.01
1230.45
1202.93
1176.33
1153.65
1135.48
1121.05
1109.92
1102.79
1099.37
1099.37
1102.79
1109.92
1121.05
1135.48
1153.64
1176.32
1202.92
1230.45
1251.01
794.509
773.101
744.629
715.593
689.927
670.974
654.814
639.999
632.212
628.731
628.731
632.212
639.999
654.814
670.973
689.924
715.591
744.629
773.101
794.508
442.472
433.157
421.943
410.735
401.935
392.918
386.761
381.945
379.229
378.015
378.015
379.23
381.945
386.76
392.916
401.934
410.735
421.943
433.157
442.471
320.361
318.616
316.841
314.383
312.25
310.466
309.221
308.309
307.784
307.552
307.552
307.784
308.309
309.221
310.465
312.25
314.383
316.841
318.616
320.36
296.856
296.658
296.419
296.057
295.729
295.472
295.29
295.161
295.086
295.052
295.052
295.086
295.161
295.29
295.472
295.729
296.057
296.419
296.658
296.855
293.486
293.464
293.434
293.388
293.348
293.315
293.292
293.276
293.266
293.262
293.262
293.266
293.276
293.292
293.315
293.348
293.388
293.434
293.464
293.486
293.04
293.038
293.036
293.032
293.029
293.026
293.024
293.023
293.022
293.022
293.022
293.022
293.023
293.024
293.026
293.029
293.032
293.036
293.038
293.04
293.179
293.178
293.178
293.176
293.175
293.174
293.173
293.173
293.173
293.173
293.173
293.173
293.173
293.173
293.174
293.175
293.176
293.178
293.178
293.179
294.512
294.508
294.502
294.488
294.477
294.469
294.466
294.464
294.464
294.464
294.464
294.464
294.464
294.466
294.469
294.477
294.488
294.502
294.508
294.512
300.501
300.463
300.415
300.335
300.276
300.242
300.227
300.224
300.222
300.223
300.223
300.222
300.224
300.227
300.242
300.276
300.335
300.415
300.463
300.501
324.765
324.398
323.999
323.604
323.354
323.226
323.191
323.177
323.18
323.187
323.187
323.18
323.177
323.191
323.226
323.354
323.604
323.998
324.397
324.765
400.108
398.318
396.257
394.9
394.136
393.783
393.663
393.659
393.709
393.749
393.749
393.709
393.658
393.662
393.783
394.136
394.9
396.257
398.317
400.108
555.909
550.711
546.114
543.323
541.918
541.373
541.29
541.452
541.668
541.803
541.803
541.668
541.452
541.29
541.373
541.918
543.323
546.114
550.711
555.909
770.934
764.779
759.299
756.38
755.25
755.129
755.615
756.293
756.882
757.204
757.204
756.882
756.293
755.614
755.129
755.25
756.38
759.298
764.778
770.933
1017.82
1012.83
1008.68
1007.08
1007.18
1008.44
1010.12
1011.74
1012.97
1013.6
1013.6
1012.97
1011.74
1010.12
1008.44
1007.18
1007.08
1008.68
1012.83
1017.82
1286.05
1284.29
1283.6
1285.12
1288.17
1291.85
1295.44
1298.45
1300.58
1301.66
1301.66
1300.58
1298.45
1295.44
1291.85
1288.17
1285.12
1283.6
1284.29
1286.05
1552.11
1553.55
1557.13
1562.27
1568.03
1573.61
1578.44
1582.23
1584.82
1586.11
1586.11
1584.82
1582.23
1578.44
1573.61
1568.03
1562.27
1557.13
1553.55
1552.11
1759.03
1762.92
1769.08
1776.02
1782.77
1788.68
1793.46
1797.07
1799.54
1800.75
1800.75
1799.54
1797.07
1793.46
1788.68
1782.77
1776.02
1769.08
1762.92
1759.03
1885.02
1886.25
1887.89
1889.48
1890.84
1891.9
1892.68
1893.23
1893.59
1893.76
1893.76
1893.59
1893.23
1892.68
1891.9
1890.84
1889.48
1887.89
1886.25
1885.02
1686.55
1669.99
1646.82
1623.75
1603.4
1586.55
1573.33
1563.65
1557.37
1554.33
1554.33
1557.37
1563.65
1573.33
1586.54
1603.4
1623.75
1646.82
1669.98
1686.55
1225.93
1204.38
1176.33
1149.96
1127.43
1108.68
1093.79
1082.86
1075.8
1072.42
1072.42
1075.8
1082.86
1093.79
1108.68
1127.42
1149.96
1176.32
1204.38
1225.93
768.621
745.217
715.593
686.603
663.201
641.698
625.873
615.397
609.16
606.31
606.31
609.16
615.397
625.873
641.697
663.199
686.601
715.591
745.215
768.619
430.563
421.178
410.735
400.965
390.549
382.932
377.567
374.069
371.967
371.011
371.011
371.967
374.068
377.566
382.93
390.549
400.964
410.734
421.178
430.562
317.767
316.295
314.383
312.108
310.095
308.611
307.577
306.904
306.497
306.312
306.312
306.497
306.904
307.576
308.61
310.095
312.108
314.383
316.295
317.767
296.489
296.311
296.057
295.717
295.431
295.218
295.069
294.971
294.912
294.884
294.884
294.912
294.971
295.069
295.218
295.431
295.717
296.057
296.311
296.489
293.441
293.421
293.388
293.347
293.311
293.284
293.265
293.252
293.245
293.241
293.241
293.245
293.252
293.265
293.284
293.311
293.347
293.388
293.421
293.441
293.036
293.035
293.032
293.029
293.026
293.024
293.022
293.021
293.02
293.02
293.02
293.02
293.021
293.022
293.024
293.026
293.029
293.032
293.035
293.036
293.177
293.177
293.176
293.175
293.173
293.173
293.172
293.172
293.172
293.172
293.172
293.172
293.172
293.172
293.173
293.173
293.175
293.176
293.177
293.177
294.501
294.497
294.491
294.477
294.465
294.458
294.454
294.452
294.452
294.451
294.451
294.452
294.452
294.454
294.458
294.465
294.477
294.491
294.497
294.501
300.448
300.407
300.362
300.276
300.218
300.182
300.164
300.157
300.155
300.155
300.155
300.155
300.157
300.164
300.182
300.218
300.276
300.362
300.407
300.448
324.536
324.161
323.773
323.354
323.104
322.966
322.905
322.887
322.889
322.894
322.894
322.889
322.887
322.905
322.965
323.104
323.354
323.773
324.16
324.536
399.401
397.57
395.568
394.136
393.358
392.986
392.855
392.848
392.894
392.93
392.93
392.894
392.848
392.855
392.986
393.358
394.136
395.567
397.57
399.401
554.719
549.329
544.74
541.918
540.507
539.957
539.872
540.029
540.237
540.364
540.364
540.237
540.029
539.871
539.957
540.506
541.918
544.739
549.328
554.719
770.108
763.717
758.164
755.25
754.133
754.018
754.506
755.18
755.76
756.074
756.074
755.76
755.18
754.506
754.018
754.132
755.25
758.164
763.716
770.107
1018.22
1013
1008.77
1007.18
1007.29
1008.58
1010.27
1011.89
1013.1
1013.73
1013.73
1013.1
1011.89
1010.27
1008.58
1007.29
1007.18
1008.77
1013
1018.22
1289.03
1287.2
1286.53
1288.17
1291.32
1295.08
1298.71
1301.73
1303.86
1304.93
1304.93
1303.86
1301.73
1298.71
1295.08
1291.32
1288.17
1286.53
1287.2
1289.03
1557.33
1558.89
1562.7
1568.03
1573.94
1579.59
1584.45
1588.22
1590.79
1592.06
1592.06
1590.79
1588.22
1584.45
1579.59
1573.94
1568.03
1562.7
1558.89
1557.33
1764.97
1769.17
1775.63
1782.77
1789.59
1795.53
1800.32
1803.88
1806.26
1807.45
1807.45
1806.26
1803.88
1800.32
1795.52
1789.59
1782.77
1775.63
1769.17
1764.97
1886.6
1887.81
1889.38
1890.84
1892.03
1892.95
1893.6
1894.06
1894.35
1894.5
1894.5
1894.35
1894.06
1893.6
1892.94
1892.03
1890.84
1889.38
1887.81
1886.6
1668.53
1651.05
1627.05
1603.4
1582.56
1565.49
1552.27
1542.68
1536.49
1533.51
1533.51
1536.49
1542.68
1552.27
1565.49
1582.56
1603.4
1627.05
1651.05
1668.53
1203.61
1181.51
1153.65
1127.43
1104.24
1085.3
1070.58
1059.92
1053.05
1049.77
1049.77
1053.05
1059.92
1070.58
1085.3
1104.24
1127.42
1153.64
1181.5
1203.6
743.907
719.48
689.927
663.201
637.087
618.715
605.836
597.15
591.799
589.326
589.326
591.798
597.149
605.835
618.715
637.087
663.199
689.923
719.476
743.903
419.658
411.222
401.935
390.549
381.693
375.481
371.163
368.239
366.435
365.608
365.608
366.435
368.239
371.163
375.481
381.693
390.548
401.933
411.22
419.656
315.495
314.256
312.25
310.095
308.422
307.235
306.405
305.84
305.49
305.331
305.331
305.49
305.84
306.405
307.235
308.422
310.094
312.249
314.256
315.495
296.156
296.014
295.729
295.431
295.196
295.026
294.905
294.822
294.771
294.747
294.747
294.771
294.822
294.905
295.026
295.196
295.431
295.729
296.014
296.156
293.399
293.382
293.348
293.311
293.282
293.26
293.244
293.234
293.227
293.224
293.224
293.227
293.234
293.244
293.26
293.282
293.311
293.348
293.382
293.399
293.033
293.031
293.029
293.026
293.023
293.022
293.02
293.019
293.019
293.018
293.018
293.019
293.019
293.02
293.022
293.023
293.026
293.029
293.031
293.033
293.176
293.176
293.176
293.174
293.173
293.172
293.171
293.171
293.171
293.171
293.171
293.171
293.171
293.171
293.172
293.173
293.174
293.176
293.176
293.176
294.493
294.489
294.484
294.469
294.458
294.451
294.447
294.445
294.444
294.444
294.444
294.444
294.445
294.447
294.451
294.458
294.469
294.484
294.489
294.493
300.407
300.369
300.331
300.242
300.182
300.146
300.128
300.121
300.12
300.12
300.12
300.12
300.121
300.128
300.146
300.182
300.242
300.331
300.369
300.407
324.364
324.014
323.675
323.226
322.966
322.826
322.764
322.745
322.747
322.751
322.751
322.747
322.745
322.764
322.826
322.965
323.226
323.675
324.013
324.364
399.026
397.057
395.35
393.783
392.986
392.611
392.478
392.468
392.511
392.543
392.543
392.51
392.468
392.478
392.611
392.986
393.783
395.35
397.057
399.026
554.29
548.74
544.229
541.373
539.957
539.405
539.314
539.463
539.662
539.783
539.783
539.662
539.463
539.314
539.404
539.957
541.373
544.229
548.739
554.29
770.187
763.612
758.035
755.129
754.018
753.904
754.385
755.049
755.618
755.925
755.925
755.618
755.048
754.385
753.904
754.018
755.129
758.035
763.612
770.187
1019.64
1014.25
1010
1008.44
1008.58
1009.87
1011.56
1013.17
1014.37
1014.99
1014.99
1014.37
1013.17
1011.56
1009.87
1008.58
1008.44
1010
1014.25
1019.64
1292.57
1290.72
1290.11
1291.85
1295.08
1298.88
1302.52
1305.53
1307.64
1308.7
1308.7
1307.64
1305.53
1302.52
1298.88
1295.08
1291.85
1290.11
1290.72
1292.57
1562.46
1564.12
1568.11
1573.61
1579.59
1585.26
1590.09
1593.82
1596.35
1597.6
1597.6
1596.35
1593.82
1590.09
1585.26
1579.59
1573.61
1568.11
1564.12
1562.46
1770.29
1774.64
1781.38
1788.68
1795.53
1801.44
1806.18
1809.69
1812
1813.15
1813.15
1812
1809.69
1806.18
1801.44
1795.53
1788.68
1781.38
1774.64
1770.29
1887.9
1889.08
1890.57
1891.9
1892.95
1893.73
1894.29
1894.67
1894.92
1895.04
1895.04
1894.92
1894.67
1894.29
1893.73
1892.95
1891.9
1890.57
1889.08
1887.9
1653.29
1635.21
1610.68
1586.55
1565.49
1548.43
1535.33
1525.9
1519.85
1516.95
1516.95
1519.85
1525.9
1535.33
1548.43
1565.49
1586.54
1610.68
1635.21
1653.28
1185.1
1163
1135.48
1108.68
1085.3
1066.45
1051.98
1041.6
1034.95
1031.8
1031.8
1034.95
1041.6
1051.98
1066.45
1085.3
1108.68
1135.48
1162.99
1185.09
722.275
697.155
670.974
641.698
618.715
602.668
591.306
583.533
578.713
576.481
576.481
578.713
583.533
591.306
602.668
618.715
641.697
670.971
697.151
722.271
410.772
403.531
392.918
382.932
375.481
370.18
366.39
363.783
362.167
361.426
361.426
362.167
363.783
366.39
370.18
375.481
382.93
392.915
403.529
410.77
313.659
312.529
310.466
308.611
307.235
306.233
305.509
305.007
304.696
304.554
304.554
304.696
305.007
305.509
306.233
307.235
308.61
310.465
312.528
313.658
295.887
295.751
295.472
295.218
295.026
294.882
294.777
294.704
294.659
294.638
294.638
294.659
294.704
294.777
294.882
295.026
295.218
295.472
295.751
295.887
293.366
293.348
293.315
293.284
293.26
293.242
293.228
293.219
293.213
293.21
293.21
293.213
293.219
293.228
293.242
293.26
293.284
293.315
293.348
293.366
293.03
293.029
293.026
293.024
293.022
293.02
293.019
293.018
293.018
293.017
293.017
293.018
293.018
293.019
293.02
293.022
293.024
293.026
293.029
293.03
293.176
293.175
293.175
293.173
293.172
293.171
293.171
293.171
293.17
293.17
293.17
293.17
293.171
293.171
293.171
293.172
293.173
293.175
293.175
293.176
294.489
294.484
294.48
294.466
294.454
294.447
294.443
294.441
294.441
294.44
294.44
294.441
294.441
294.443
294.447
294.454
294.466
294.48
294.484
294.489
300.387
300.345
300.31
300.227
300.164
300.128
300.111
300.104
300.102
300.102
300.102
300.102
300.104
300.111
300.128
300.164
300.227
300.31
300.345
300.387
324.303
323.931
323.596
323.191
322.905
322.764
322.703
322.683
322.683
322.687
322.687
322.683
322.683
322.703
322.764
322.905
323.191
323.596
323.93
324.303
398.956
396.864
395.229
393.663
392.855
392.478
392.342
392.328
392.366
392.394
392.394
392.366
392.328
392.342
392.478
392.855
393.662
395.229
396.864
398.956
554.319
548.64
544.151
541.29
539.872
539.314
539.217
539.355
539.543
539.657
539.657
539.543
539.355
539.217
539.314
539.871
541.29
544.15
548.639
554.319
770.822
764.106
758.51
755.615
754.506
754.385
754.851
755.496
756.05
756.347
756.347
756.05
755.496
754.85
754.385
754.506
755.614
758.51
764.105
770.822
1021.42
1015.92
1011.66
1010.12
1010.27
1011.56
1013.24
1014.82
1016
1016.61
1016.61
1016
1014.82
1013.24
1011.56
1010.27
1010.12
1011.66
1015.92
1021.42
1296.05
1294.19
1293.63
1295.44
1298.71
1302.52
1306.13
1309.12
1311.21
1312.25
1312.25
1311.21
1309.12
1306.13
1302.52
1298.71
1295.44
1293.63
1294.19
1296.05
1567.05
1568.78
1572.86
1578.44
1584.45
1590.09
1594.87
1598.56
1601.04
1602.27
1602.27
1601.04
1598.56
1594.87
1590.09
1584.45
1578.44
1572.86
1568.78
1567.05
1774.97
1779.41
1786.11
1793.46
1800.32
1806.18
1810.84
1814.3
1816.57
1817.69
1817.69
1816.57
1814.3
1810.84
1806.18
1800.32
1793.46
1786.11
1779.41
1774.97
1888.98
1890.11
1891.48
1892.68
1893.6
1894.29
1894.78
1895.11
1895.33
1895.43
1895.43
1895.33
1895.11
1894.78
1894.29
1893.6
1892.68
1891.48
1890.11
1888.98
1641.22
1622.75
1597.76
1573.33
1552.27
1535.33
1522.41
1513.17
1507.25
1504.42
1504.42
1507.25
1513.16
1522.41
1535.33
1552.27
1573.33
1597.75
1622.75
1641.22
1170.81
1148.88
1121.05
1093.79
1070.58
1051.98
1037.84
1027.75
1021.32
1018.28
1018.28
1021.32
1027.75
1037.84
1051.98
1070.58
1093.79
1121.04
1148.87
1170.8
704.018
681.309
654.814
625.873
605.836
591.306
580.871
573.68
569.201
567.123
567.123
569.201
573.68
580.871
591.306
605.835
625.872
654.812
681.306
704.015
404.466
396.353
386.761
377.567
371.163
366.39
362.93
360.535
359.043
358.358
358.358
359.043
360.535
362.93
366.389
371.163
377.566
386.76
396.351
404.464
312.36
310.938
309.221
307.577
306.405
305.509
304.852
304.394
304.109
303.978
303.978
304.109
304.394
304.852
305.509
306.405
307.576
309.221
310.938
312.36
295.694
295.517
295.29
295.069
294.905
294.777
294.682
294.616
294.574
294.555
294.555
294.574
294.616
294.682
294.777
294.905
295.069
295.29
295.517
295.694
293.34
293.319
293.292
293.265
293.244
293.228
293.216
293.207
293.202
293.2
293.2
293.202
293.207
293.216
293.228
293.244
293.265
293.292
293.319
293.34
293.028
293.026
293.024
293.022
293.02
293.019
293.018
293.017
293.017
293.016
293.016
293.017
293.017
293.018
293.019
293.02
293.022
293.024
293.026
293.028
293.176
293.175
293.175
293.173
293.172
293.171
293.171
293.17
293.17
293.17
293.17
293.17
293.17
293.171
293.171
293.172
293.173
293.175
293.175
293.176
294.487
294.482
294.478
294.464
294.452
294.445
294.441
294.439
294.439
294.438
294.438
294.439
294.439
294.441
294.445
294.452
294.464
294.478
294.482
294.487
300.381
300.336
300.299
300.224
300.157
300.121
300.104
300.097
300.094
300.093
300.093
300.094
300.097
300.104
300.121
300.157
300.224
300.299
300.336
300.381
324.295
323.909
323.575
323.177
322.887
322.745
322.683
322.662
322.66
322.661
322.661
322.66
322.662
322.683
322.745
322.887
323.177
323.575
323.909
324.295
399.007
396.85
395.23
393.659
392.848
392.468
392.328
392.309
392.341
392.365
392.365
392.341
392.309
392.328
392.468
392.848
393.658
395.23
396.85
399.007
554.581
548.824
544.319
541.452
540.029
539.463
539.355
539.476
539.648
539.749
539.749
539.648
539.476
539.355
539.463
540.029
541.452
544.319
548.824
554.581
771.61
764.806
759.187
756.293
755.18
755.049
755.496
756.123
756.657
756.943
756.943
756.657
756.122
755.496
755.048
755.18
756.293
759.187
764.806
771.61
1023.11
1017.53
1013.27
1011.74
1011.89
1013.17
1014.82
1016.37
1017.54
1018.13
1018.13
1017.54
1016.37
1014.82
1013.17
1011.89
1011.74
1013.27
1017.53
1023.11
1298.99
1297.13
1296.6
1298.45
1301.73
1305.53
1309.12
1312.08
1314.14
1315.17
1315.17
1314.14
1312.08
1309.12
1305.53
1301.73
1298.45
1296.6
1297.13
1298.99
1570.7
1572.48
1576.64
1582.23
1588.22
1593.82
1598.56
1602.2
1604.65
1605.85
1605.85
1604.65
1602.2
1598.56
1593.82
1588.22
1582.23
1576.64
1572.48
1570.7
1778.52
1783.03
1789.82
1797.07
1803.88
1809.69
1814.3
1817.7
1819.93
1821.03
1821.03
1819.93
1817.7
1814.3
1809.69
1803.88
1797.08
1789.82
1783.03
1778.52
1889.79
1890.88
1892.14
1893.23
1894.06
1894.67
1895.11
1895.41
1895.6
1895.69
1895.69
1895.6
1895.41
1895.11
1894.67
1894.06
1893.23
1892.14
1890.88
1889.79
1632.36
1613.58
1588.15
1563.65
1542.68
1525.9
1513.17
1504.08
1498.27
1495.5
1495.5
1498.27
1504.08
1513.16
1525.9
1542.68
1563.65
1588.14
1613.57
1632.35
1160.61
1138.71
1109.92
1082.86
1059.92
1041.6
1027.75
1017.9
1011.64
1008.68
1008.68
1011.64
1017.9
1027.75
1041.6
1059.92
1082.86
1109.92
1138.7
1160.6
691.176
670.883
639.999
615.397
597.15
583.533
573.68
566.855
562.582
560.593
560.593
562.582
566.854
573.68
583.532
597.148
615.395
639.997
670.878
691.17
399.549
391.655
381.945
374.069
368.239
363.783
360.535
358.272
356.855
356.204
356.204
356.855
358.272
360.535
363.783
368.239
374.068
381.944
391.654
399.547
311.345
309.952
308.309
306.904
305.84
305.007
304.394
303.965
303.696
303.573
303.573
303.696
303.965
304.394
305.007
305.84
306.904
308.309
309.952
311.344
295.546
295.371
295.161
294.971
294.822
294.704
294.616
294.554
294.515
294.497
294.497
294.515
294.554
294.616
294.704
294.822
294.971
295.161
295.371
295.545
293.321
293.301
293.276
293.252
293.234
293.219
293.207
293.199
293.195
293.192
293.192
293.195
293.199
293.207
293.219
293.234
293.252
293.276
293.301
293.321
293.026
293.025
293.023
293.021
293.019
293.018
293.017
293.016
293.016
293.016
293.016
293.016
293.016
293.017
293.018
293.019
293.021
293.023
293.025
293.026
293.176
293.175
293.175
293.173
293.172
293.171
293.17
293.17
293.17
293.17
293.17
293.17
293.17
293.17
293.171
293.172
293.173
293.175
293.175
293.176
294.487
294.481
294.477
294.464
294.452
294.444
294.441
294.439
294.438
294.437
294.437
294.438
294.439
294.441
294.444
294.452
294.464
294.477
294.481
294.487
300.382
300.335
300.297
300.222
300.155
300.12
300.102
300.094
300.091
300.088
300.088
300.091
300.094
300.102
300.12
300.155
300.222
300.297
300.335
300.382
324.31
323.918
323.58
323.18
322.889
322.747
322.683
322.66
322.654
322.649
322.649
322.654
322.66
322.683
322.747
322.889
323.18
323.58
323.918
324.31
399.103
396.918
395.292
393.709
392.894
392.511
392.366
392.341
392.361
392.374
392.374
392.361
392.341
392.365
392.51
392.894
393.709
395.292
396.918
399.103
554.819
549.167
544.553
541.668
540.237
539.662
539.543
539.648
539.799
539.885
539.885
539.799
539.648
539.543
539.662
540.237
541.668
544.553
549.167
554.819
772.268
765.451
759.785
756.882
755.76
755.618
756.05
756.657
757.175
757.45
757.45
757.175
756.657
756.05
755.618
755.76
756.882
759.785
765.451
772.268
1024.39
1018.77
1014.49
1012.97
1013.1
1014.37
1016
1017.54
1018.68
1019.27
1019.27
1018.68
1017.54
1016
1014.37
1013.1
1012.97
1014.49
1018.77
1024.39
1301.09
1299.23
1298.71
1300.58
1303.86
1307.64
1311.21
1314.14
1316.19
1317.21
1317.21
1316.19
1314.14
1311.21
1307.64
1303.86
1300.58
1298.72
1299.23
1301.09
1573.22
1575.02
1579.22
1584.82
1590.79
1596.35
1601.04
1604.65
1607.07
1608.26
1608.26
1607.07
1604.65
1601.04
1596.35
1590.79
1584.83
1579.22
1575.02
1573.22
1780.9
1785.46
1792.28
1799.54
1806.26
1812
1816.57
1819.93
1822.13
1823.21
1823.21
1822.13
1819.93
1816.57
1812
1806.26
1799.55
1792.28
1785.47
1780.9
1890.33
1891.39
1892.58
1893.59
1894.35
1894.92
1895.33
1895.6
1895.77
1895.85
1895.85
1895.77
1895.6
1895.33
1894.92
1894.36
1893.59
1892.58
1891.39
1890.33
1626.55
1607.56
1581.88
1557.37
1536.49
1519.85
1507.25
1498.27
1492.54
1489.81
1489.81
1492.54
1498.27
1507.25
1519.85
1536.49
1557.37
1581.88
1607.55
1626.54
1153.99
1132
1102.79
1075.8
1053.05
1034.95
1021.32
1011.64
1005.48
1002.57
1002.57
1005.48
1011.64
1021.32
1034.95
1053.05
1075.8
1102.79
1132
1153.98
682.861
662.973
632.212
609.16
591.799
578.713
569.201
562.582
558.407
556.451
556.451
558.407
562.581
569.2
578.712
591.797
609.158
632.21
662.967
682.851
396.343
388.662
379.229
371.967
366.435
362.167
359.043
356.855
355.484
354.847
354.847
355.484
356.855
359.043
362.167
366.434
371.966
379.228
388.66
396.341
310.692
309.345
307.784
306.497
305.49
304.696
304.109
303.696
303.436
303.311
303.311
303.435
303.696
304.109
304.696
305.49
306.497
307.784
309.345
310.691
295.45
295.282
295.086
294.912
294.771
294.659
294.574
294.515
294.477
294.459
294.459
294.477
294.515
294.574
294.659
294.771
294.912
295.086
295.282
295.45
293.309
293.289
293.266
293.245
293.227
293.213
293.202
293.195
293.19
293.187
293.187
293.19
293.195
293.202
293.213
293.227
293.245
293.266
293.289
293.309
293.025
293.024
293.022
293.02
293.019
293.018
293.017
293.016
293.016
293.015
293.015
293.016
293.016
293.017
293.018
293.019
293.02
293.022
293.024
293.025
293.176
293.175
293.175
293.173
293.172
293.171
293.17
293.17
293.17
293.17
293.17
293.17
293.17
293.17
293.171
293.172
293.173
293.175
293.175
293.176
294.487
294.481
294.477
294.464
294.451
294.444
294.44
294.438
294.437
294.436
294.436
294.437
294.438
294.44
294.444
294.451
294.464
294.477
294.481
294.487
300.384
300.337
300.298
300.223
300.155
300.12
300.102
300.093
300.088
300.082
300.082
300.088
300.093
300.102
300.12
300.155
300.223
300.298
300.337
300.384
324.323
323.938
323.59
323.187
322.894
322.751
322.687
322.661
322.649
322.635
322.635
322.649
322.661
322.687
322.751
322.894
323.187
323.59
323.937
324.323
399.144
397.032
395.349
393.749
392.93
392.543
392.394
392.365
392.374
392.371
392.371
392.374
392.365
392.394
392.543
392.929
393.749
395.349
397.032
399.144
554.564
549.931
544.726
541.803
540.364
539.783
539.657
539.749
539.885
539.959
539.959
539.885
539.749
539.657
539.783
540.364
541.803
544.726
549.931